
     Program PHONON v.6.7MaX starts on 27May2026 at 22:40: 4 

     This program is part of the open-source Quantum ESPRESSO suite
     for quantum simulation of materials; please cite
         "P. Giannozzi et al., J. Phys.:Condens. Matter 21 395502 (2009);
         "P. Giannozzi et al., J. Phys.:Condens. Matter 29 465901 (2017);
          URL http://www.quantum-espresso.org", 
     in publications or presentations arising from this work. More details at
     http://www.quantum-espresso.org/quote

     Parallel version (MPI), running on     6 processors

     MPI processes distributed on     1 nodes
     R & G space division:  proc/nbgrp/npool/nimage =       6
     Reading input from ph.in

     Reading xml data from directory:

     ./tmp/yh10.save/
     file Y.UPF: wavefunction(s)  4S renormalized

     IMPORTANT: XC functional enforced from input :
     Exchange-correlation= PBE
                           (   1   4   3   4   0   0   0)
     Any further DFT definition will be discarded
     Please, verify this is what you really want


     Parallelization info
     --------------------
     sticks:   dense  smooth     PW     G-vecs:    dense   smooth      PW
     Min         361     143     42                11089     2810     456
     Max         363     144     43                11090     2813     460
     Sum        2173     859    253                66539    16865    2741

     Reading collected, re-writing distributed wavefunctions


     Dynamical matrices for ( 4, 4, 4)  uniform grid of q-points
     (   8 q-points):
       N         xq(1)         xq(2)         xq(3) 
       1   0.000000000   0.000000000   0.000000000
       2  -0.176776695   0.176776695  -0.176776695
       3   0.353553391  -0.353553391   0.353553391
       4   0.000000000   0.353553391   0.000000000
       5   0.530330086  -0.176776695   0.530330086
       6   0.353553391   0.000000000   0.353553391
       7   0.000000000  -0.707106781   0.000000000
       8  -0.353553391  -0.707106781   0.000000000

     Saving dvscf to file. Distribute only q points, not irreducible represetations.

     Calculation of q =    0.0000000   0.0000000   0.0000000

Possibly too few bands at point    1   0.00000   0.00000   0.00000

Possibly too few bands at point    2  -0.05893   0.05893  -0.05893

     --                                                                         

     bravais-lattice index     =            0
     lattice parameter (alat)  =       6.2713  a.u.
     unit-cell volume          =     174.4011 (a.u.)^3
     number of atoms/cell      =           11
     number of atomic types    =            2
     kinetic-energy cut-off    =      80.0000  Ry
     charge density cut-off    =     800.0000  Ry
     convergence threshold     =      1.0E-14
     beta                      =       0.7000
     number of iterations used =            4
     Exchange-correlation= PBE
                           (   1   4   3   4   0   0   0)


     celldm(1)=    6.27126  celldm(2)=    0.00000  celldm(3)=    0.00000
     celldm(4)=    0.00000  celldm(5)=    0.00000  celldm(6)=    0.00000

     crystal axes: (cart. coord. in units of alat)
               a(1) = ( -0.7071  0.0000  0.7071 )  
               a(2) = (  0.0000  0.7071  0.7071 )  
               a(3) = ( -0.7071  0.7071  0.0000 )  

     reciprocal axes: (cart. coord. in units 2 pi/alat)
               b(1) = ( -0.7071 -0.7071  0.7071 )  
               b(2) = (  0.7071  0.7071  0.7071 )  
               b(3) = ( -0.7071  0.7071 -0.7071 )  


     Atoms inside the unit cell: 

     Cartesian axes

     site n.  atom      mass           positions (alat units)
        1     Y   88.9060   tau(    1) = (    0.00000    0.00000    0.00000  )
        2     H    1.0080   tau(    2) = (   -1.06066    1.06066    1.06066  )
        3     H    1.0080   tau(    3) = (   -0.35355    0.35355    0.35355  )
        4     H    1.0080   tau(    4) = (   -0.87836    0.53586    0.53586  )
        5     H    1.0080   tau(    5) = (   -0.53586    0.87836    0.87836  )
        6     H    1.0080   tau(    6) = (   -0.53586    0.53586    0.53586  )
        7     H    1.0080   tau(    7) = (   -0.87836    0.87836    0.87836  )
        8     H    1.0080   tau(    8) = (   -0.53586    0.87836    0.53586  )
        9     H    1.0080   tau(    9) = (   -0.87836    0.53586    0.87836  )
       10     H    1.0080   tau(   10) = (   -0.87836    0.87836    0.53586  )
       11     H    1.0080   tau(   11) = (   -0.53586    0.53586    0.87836  )

     Computing dynamical matrix for 
                    q = (   0.0000000   0.0000000   0.0000000 )

     49 Sym.Ops. (with q -> -q+G )


     G cutoff =  796.9659  (  11090 G-vectors)     FFT grid: ( 60, 60, 60)
     G cutoff =  318.7864  (   2813 G-vectors)  smooth grid: ( 36, 36, 36)

     number of k points=    72  Methfessel-Paxton smearing, width (Ry)=  0.0200

     PseudoPot. # 1 for Y  read from file:
     ../pseudo/Y.UPF
     MD5 check sum: 5fe32e6a006803c2ec2edff47948a3c8
     Pseudo is Ultrasoft + core correction, Zval = 11.0
     Generated using &quot;atomic&quot; code by A. Dal Corso  v.6.2.2
     Using radial grid of 1223 points,  6 beta functions with: 
                l(1) =   0
                l(2) =   0
                l(3) =   1
                l(4) =   1
                l(5) =   2
                l(6) =   2
     Q(r) pseudized with 0 coefficients 


     PseudoPot. # 2 for H  read from file:
     ../pseudo/H.UPF
     MD5 check sum: 3f4114867bd07edc7f1424d066fc1888
     Pseudo is Ultrasoft, Zval =  1.0
     Generated using &quot;atomic&quot; code by A. Dal Corso  v.6.3MaX
     Using radial grid of  929 points,  2 beta functions with: 
                l(1) =   0
                l(2) =   0
     Q(r) pseudized with 0 coefficients 


     Mode symmetry, O_h (m-3m)  point group:


     Atomic displacements:
     There are   13 irreducible representations

     Representation     1      1 modes -  To be done

     Representation     2      2 modes -  To be done

     Representation     3      3 modes -  To be done

     Representation     4      3 modes -  To be done

     Representation     5      3 modes -  To be done

     Representation     6      3 modes -  To be done

     Representation     7      1 modes -  To be done

     Representation     8      2 modes -  To be done

     Representation     9      3 modes -  To be done

     Representation    10      3 modes -  To be done

     Representation    11      3 modes -  To be done

     Representation    12      3 modes -  To be done

     Representation    13      3 modes -  To be done



     Alpha used in Ewald sum =   2.8000
     PHONON       :      7.48s CPU      8.45s WALL



     Representation #   1 mode #   1

     Self-consistent Calculation

     Pert. #  1: Fermi energy shift (Ry) =     5.0450E-03     0.0000E+00

      iter #   1 total cpu time :    11.3 secs   av.it.:   4.0
      thresh= 1.000E-02 alpha_mix =  0.700 |ddv_scf|^2 =  1.696E-07

     Pert. #  1: Fermi energy shift (Ry) =    -3.1690E-02     0.0000E+00

      iter #   2 total cpu time :    15.4 secs   av.it.:   9.5
      thresh= 4.119E-05 alpha_mix =  0.700 |ddv_scf|^2 =  1.175E-08

     Pert. #  1: Fermi energy shift (Ry) =    -1.8895E-02     0.0000E+00

      iter #   3 total cpu time :    19.6 secs   av.it.:   9.7
      thresh= 1.084E-05 alpha_mix =  0.700 |ddv_scf|^2 =  2.241E-10

     Pert. #  1: Fermi energy shift (Ry) =    -1.9582E-02     0.0000E+00

      iter #   4 total cpu time :    23.8 secs   av.it.:   9.7
      thresh= 1.497E-06 alpha_mix =  0.700 |ddv_scf|^2 =  4.126E-12

     Pert. #  1: Fermi energy shift (Ry) =    -1.9213E-02     0.0000E+00

      iter #   5 total cpu time :    27.9 secs   av.it.:   9.1
      thresh= 2.031E-07 alpha_mix =  0.700 |ddv_scf|^2 =  2.319E-14

     Pert. #  1: Fermi energy shift (Ry) =    -1.9199E-02     0.0000E+00

      iter #   6 total cpu time :    31.9 secs   av.it.:   9.3
      thresh= 1.523E-08 alpha_mix =  0.700 |ddv_scf|^2 =  1.751E-16

     End of self-consistent calculation

     Convergence has been achieved 


     Representation #   2 modes #   2   3

     Self-consistent Calculation

     Pert. #  1: Fermi energy shift (Ry) =    -2.8912E-18    -1.8684E-44
     Pert. #  2: Fermi energy shift (Ry) =     8.3845E-18     1.3079E-44

      iter #   1 total cpu time :    37.8 secs   av.it.:   4.3
      thresh= 1.000E-02 alpha_mix =  0.700 |ddv_scf|^2 =  1.656E-08

     Pert. #  1: Fermi energy shift (Ry) =    -5.2042E-18    -7.4736E-45
     Pert. #  2: Fermi energy shift (Ry) =     3.1803E-18     1.1210E-44

      iter #   2 total cpu time :    46.6 secs   av.it.:  10.6
      thresh= 1.287E-05 alpha_mix =  0.700 |ddv_scf|^2 =  4.706E-11

     Pert. #  1: Fermi energy shift (Ry) =    -5.7824E-18     1.8684E-44
     Pert. #  2: Fermi energy shift (Ry) =    -7.8063E-18    -5.4184E-44

      iter #   3 total cpu time :    55.2 secs   av.it.:  10.5
      thresh= 6.860E-07 alpha_mix =  0.700 |ddv_scf|^2 =  2.921E-12

     Pert. #  1: Fermi energy shift (Ry) =    -3.4694E-18    -2.8026E-45
     Pert. #  2: Fermi energy shift (Ry) =     8.6736E-18    -2.6625E-44

      iter #   4 total cpu time :    63.9 secs   av.it.:  10.5
      thresh= 1.709E-07 alpha_mix =  0.700 |ddv_scf|^2 =  3.276E-14

     Pert. #  1: Fermi energy shift (Ry) =     0.0000E+00     1.8684E-44
     Pert. #  2: Fermi energy shift (Ry) =    -3.7586E-18    -5.4184E-44

      iter #   5 total cpu time :    72.3 secs   av.it.:  10.1
      thresh= 1.810E-08 alpha_mix =  0.700 |ddv_scf|^2 =  4.813E-17

     End of self-consistent calculation

     Convergence has been achieved 


     Representation #   3 modes #   4   5   6

     Self-consistent Calculation

     Pert. #  1: Fermi energy shift (Ry) =    -3.6140E-20     1.9850E-40
     Pert. #  2: Fermi energy shift (Ry) =     9.0350E-21     1.6645E-40
     Pert. #  3: Fermi energy shift (Ry) =     1.6376E-20     9.1925E-42

      iter #   1 total cpu time :    80.3 secs   av.it.:   3.2
      thresh= 1.000E-02 alpha_mix =  0.700 |ddv_scf|^2 =  8.745E-11

     Pert. #  1: Fermi energy shift (Ry) =    -1.1746E-19     1.4947E-43
     Pert. #  2: Fermi energy shift (Ry) =     5.4210E-20    -2.5410E-43
     Pert. #  3: Fermi energy shift (Ry) =     6.1833E-20     6.3058E-44

      iter #   2 total cpu time :    94.2 secs   av.it.:  11.4
      thresh= 9.351E-07 alpha_mix =  0.700 |ddv_scf|^2 =  8.684E-12

     Pert. #  1: Fermi energy shift (Ry) =    -3.6140E-20     3.2884E-43
     Pert. #  2: Fermi energy shift (Ry) =    -1.8070E-20    -5.9789E-44
     Pert. #  3: Fermi energy shift (Ry) =     8.1033E-20    -6.6328E-44

      iter #   3 total cpu time :   107.3 secs   av.it.:  10.5
      thresh= 2.947E-07 alpha_mix =  0.700 |ddv_scf|^2 =  6.500E-15

     End of self-consistent calculation

     Convergence has been achieved 


     Representation #   4 modes #   7   8   9

     Self-consistent Calculation

     Pert. #  1: Fermi energy shift (Ry) =    -2.1684E-19    -2.6158E-44
     Pert. #  2: Fermi energy shift (Ry) =     3.0719E-19     1.4947E-44
     Pert. #  3: Fermi energy shift (Ry) =    -3.6140E-19     1.7750E-44

      iter #   1 total cpu time :   116.2 secs   av.it.:   3.9
      thresh= 1.000E-02 alpha_mix =  0.700 |ddv_scf|^2 =  6.642E-09

     Pert. #  1: Fermi energy shift (Ry) =     2.1684E-19     7.4736E-45
     Pert. #  2: Fermi energy shift (Ry) =    -1.8974E-19    -7.4736E-45
     Pert. #  3: Fermi energy shift (Ry) =     1.8070E-19     1.1210E-44

      iter #   2 total cpu time :   130.1 secs   av.it.:  11.3
      thresh= 8.150E-06 alpha_mix =  0.700 |ddv_scf|^2 =  3.862E-10

     Pert. #  1: Fermi energy shift (Ry) =    -4.6982E-19    -1.0164E-42
     Pert. #  2: Fermi energy shift (Ry) =     3.6140E-20     8.9683E-44
     Pert. #  3: Fermi energy shift (Ry) =    -1.6263E-19    -5.9789E-44

      iter #   3 total cpu time :   144.2 secs   av.it.:  11.2
      thresh= 1.965E-06 alpha_mix =  0.700 |ddv_scf|^2 =  2.438E-12

     Pert. #  1: Fermi energy shift (Ry) =    -2.5298E-19     5.9789E-44
     Pert. #  2: Fermi energy shift (Ry) =     0.0000E+00    -5.6052E-44
     Pert. #  3: Fermi energy shift (Ry) =    -1.0842E-19     3.3631E-44

      iter #   4 total cpu time :   158.4 secs   av.it.:  11.3
      thresh= 1.562E-07 alpha_mix =  0.700 |ddv_scf|^2 =  9.824E-15

     End of self-consistent calculation

     Convergence has been achieved 


     Representation #   5 modes #  10  11  12

     Self-consistent Calculation

     Pert. #  1: Fermi energy shift (Ry) =     2.1684E-19    -4.7831E-43
     Pert. #  2: Fermi energy shift (Ry) =     3.6140E-19     0.0000E+00
     Pert. #  3: Fermi energy shift (Ry) =    -3.9076E-19    -1.8310E-43

      iter #   1 total cpu time :   167.8 secs   av.it.:   4.0
      thresh= 1.000E-02 alpha_mix =  0.700 |ddv_scf|^2 =  8.817E-09

     Pert. #  1: Fermi energy shift (Ry) =     0.0000E+00    -3.7368E-44
     Pert. #  2: Fermi energy shift (Ry) =     7.5894E-19    -1.4947E-44
     Pert. #  3: Fermi energy shift (Ry) =     3.0493E-20    -2.9894E-44

      iter #   2 total cpu time :   182.0 secs   av.it.:  11.3
      thresh= 9.390E-06 alpha_mix =  0.700 |ddv_scf|^2 =  5.056E-10

     Pert. #  1: Fermi energy shift (Ry) =    -3.9754E-19    -1.7937E-43
     Pert. #  2: Fermi energy shift (Ry) =     7.5894E-19    -1.5545E-42
     Pert. #  3: Fermi energy shift (Ry) =    -8.8091E-20    -5.2315E-43

      iter #   3 total cpu time :   196.3 secs   av.it.:  11.3
      thresh= 2.248E-06 alpha_mix =  0.700 |ddv_scf|^2 =  2.347E-12

     Pert. #  1: Fermi energy shift (Ry) =    -2.1684E-19    -5.9789E-44
     Pert. #  2: Fermi energy shift (Ry) =    -4.3368E-19     4.4842E-43
     Pert. #  3: Fermi energy shift (Ry) =    -7.1828E-19    -2.4663E-43

      iter #   4 total cpu time :   210.5 secs   av.it.:  11.2
      thresh= 1.532E-07 alpha_mix =  0.700 |ddv_scf|^2 =  9.331E-15

     End of self-consistent calculation

     Convergence has been achieved 


     Representation #   6 modes #  13  14  15

     Self-consistent Calculation

     Pert. #  1: Fermi energy shift (Ry) =     6.8666E-19     8.9683E-44
     Pert. #  2: Fermi energy shift (Ry) =     4.1561E-19     1.2892E-43
     Pert. #  3: Fermi energy shift (Ry) =    -1.1746E-19    -2.4289E-44

      iter #   1 total cpu time :   219.8 secs   av.it.:   3.9
      thresh= 1.000E-02 alpha_mix =  0.700 |ddv_scf|^2 =  1.304E-09

     Pert. #  1: Fermi energy shift (Ry) =     5.4210E-19    -5.6052E-45
     Pert. #  2: Fermi energy shift (Ry) =     1.8070E-20    -2.8026E-45
     Pert. #  3: Fermi energy shift (Ry) =     1.9877E-19     3.0361E-44

      iter #   2 total cpu time :   233.9 secs   av.it.:  11.3
      thresh= 3.611E-06 alpha_mix =  0.700 |ddv_scf|^2 =  7.136E-11

     Pert. #  1: Fermi energy shift (Ry) =     6.5052E-19     1.4872E-42
     Pert. #  2: Fermi energy shift (Ry) =     1.8974E-19     3.2136E-43
     Pert. #  3: Fermi energy shift (Ry) =     3.0267E-19    -7.9594E-43

      iter #   3 total cpu time :   247.7 secs   av.it.:  11.2
      thresh= 8.447E-07 alpha_mix =  0.700 |ddv_scf|^2 =  2.288E-12

     Pert. #  1: Fermi energy shift (Ry) =     4.6982E-19     2.2888E-44
     Pert. #  2: Fermi energy shift (Ry) =     2.4395E-19     3.9236E-44
     Pert. #  3: Fermi energy shift (Ry) =     3.6140E-20    -6.5686E-45

      iter #   4 total cpu time :   261.7 secs   av.it.:  11.1
      thresh= 1.513E-07 alpha_mix =  0.700 |ddv_scf|^2 =  7.541E-15

     End of self-consistent calculation

     Convergence has been achieved 


     Representation #   7 mode #  16

     Self-consistent Calculation

     Pert. #  1: Fermi energy shift (Ry) =     0.0000E+00     0.0000E+00

      iter #   1 total cpu time :   266.3 secs   av.it.:   3.9
      thresh= 1.000E-02 alpha_mix =  0.700 |ddv_scf|^2 =  1.135E-07

     Pert. #  1: Fermi energy shift (Ry) =    -3.7697E-27     0.0000E+00

      iter #   2 total cpu time :   270.5 secs   av.it.:   9.1
      thresh= 3.369E-05 alpha_mix =  0.700 |ddv_scf|^2 =  1.522E-08

     Pert. #  1: Fermi energy shift (Ry) =     3.0158E-26     0.0000E+00

      iter #   3 total cpu time :   274.7 secs   av.it.:   9.0
      thresh= 1.234E-05 alpha_mix =  0.700 |ddv_scf|^2 =  1.911E-11

     Pert. #  1: Fermi energy shift (Ry) =    -6.7316E-28     0.0000E+00

      iter #   4 total cpu time :   278.6 secs   av.it.:   8.1
      thresh= 4.372E-07 alpha_mix =  0.700 |ddv_scf|^2 =  1.366E-14

     Pert. #  1: Fermi energy shift (Ry) =     3.2312E-27     0.0000E+00

      iter #   5 total cpu time :   282.5 secs   av.it.:   8.3
      thresh= 1.169E-08 alpha_mix =  0.700 |ddv_scf|^2 =  8.650E-16

     End of self-consistent calculation

     Convergence has been achieved 


     Representation #   8 modes #  17  18

     Self-consistent Calculation

     Pert. #  1: Fermi energy shift (Ry) =     2.1541E-27     2.0689E-36
     Pert. #  2: Fermi energy shift (Ry) =    -2.1541E-27     1.1912E-36

      iter #   1 total cpu time :   288.0 secs   av.it.:   3.1
      thresh= 1.000E-02 alpha_mix =  0.700 |ddv_scf|^2 =  1.968E-10

     Pert. #  1: Fermi energy shift (Ry) =     1.0771E-26     0.0000E+00
     Pert. #  2: Fermi energy shift (Ry) =     1.5079E-26    -1.9132E-41

      iter #   2 total cpu time :   297.1 secs   av.it.:  10.4
      thresh= 1.403E-06 alpha_mix =  0.700 |ddv_scf|^2 =  1.976E-11

     Pert. #  1: Fermi energy shift (Ry) =     2.8004E-26    -1.5306E-41
     Pert. #  2: Fermi energy shift (Ry) =     1.1848E-26     5.7397E-42

      iter #   3 total cpu time :   305.3 secs   av.it.:   9.1
      thresh= 4.445E-07 alpha_mix =  0.700 |ddv_scf|^2 =  1.330E-14

     Pert. #  1: Fermi energy shift (Ry) =     1.0771E-26     8.8487E-42
     Pert. #  2: Fermi energy shift (Ry) =    -6.4623E-27    -1.3154E-42

      iter #   4 total cpu time :   313.2 secs   av.it.:   8.6
      thresh= 1.153E-08 alpha_mix =  0.700 |ddv_scf|^2 =  1.674E-17

     End of self-consistent calculation

     Convergence has been achieved 


     Representation #   9 modes #  19  20  21

     Self-consistent Calculation

     Pert. #  1: Fermi energy shift (Ry) =    -1.3127E-27     3.7616E-36
     Pert. #  2: Fermi energy shift (Ry) =    -1.1713E-26     3.0093E-36
     Pert. #  3: Fermi energy shift (Ry) =     2.0195E-28     2.0062E-36

      iter #   1 total cpu time :   322.6 secs   av.it.:   4.3
      thresh= 1.000E-02 alpha_mix =  0.700 |ddv_scf|^2 =  1.288E-08

     Pert. #  1: Fermi energy shift (Ry) =    -9.6935E-27    -1.6263E-40
     Pert. #  2: Fermi energy shift (Ry) =    -1.5079E-26     9.1835E-41
     Pert. #  3: Fermi energy shift (Ry) =    -1.7233E-26    -1.9132E-40

      iter #   2 total cpu time :   337.3 secs   av.it.:  11.6
      thresh= 1.135E-05 alpha_mix =  0.700 |ddv_scf|^2 =  1.552E-09

     Pert. #  1: Fermi energy shift (Ry) =     2.1541E-27     0.0000E+00
     Pert. #  2: Fermi energy shift (Ry) =    -3.2312E-26     0.0000E+00
     Pert. #  3: Fermi energy shift (Ry) =    -1.7233E-26     1.4694E-39

      iter #   3 total cpu time :   351.9 secs   av.it.:  11.4
      thresh= 3.939E-06 alpha_mix =  0.700 |ddv_scf|^2 =  6.152E-12

     Pert. #  1: Fermi energy shift (Ry) =    -1.8849E-26    -1.1479E-41
     Pert. #  2: Fermi energy shift (Ry) =    -2.1541E-26     3.8265E-41
     Pert. #  3: Fermi energy shift (Ry) =     2.3695E-26     4.9744E-41

      iter #   4 total cpu time :   366.4 secs   av.it.:  11.4
      thresh= 2.480E-07 alpha_mix =  0.700 |ddv_scf|^2 =  8.087E-14

     Pert. #  1: Fermi energy shift (Ry) =     1.7771E-26     4.7831E-42
     Pert. #  2: Fermi energy shift (Ry) =    -1.9387E-26    -1.9132E-41
     Pert. #  3: Fermi energy shift (Ry) =    -4.8468E-26    -1.5306E-41

      iter #   5 total cpu time :   380.7 secs   av.it.:  11.2
      thresh= 2.844E-08 alpha_mix =  0.700 |ddv_scf|^2 =  3.288E-15

     End of self-consistent calculation

     Convergence has been achieved 


     Representation #  10 modes #  22  23  24

     Self-consistent Calculation

     Pert. #  1: Fermi energy shift (Ry) =    -7.9938E-27    -3.1347E-38
     Pert. #  2: Fermi energy shift (Ry) =     1.1808E-26    -3.1347E-37
     Pert. #  3: Fermi energy shift (Ry) =    -2.3561E-27     3.4481E-37

      iter #   1 total cpu time :   390.0 secs   av.it.:   3.9
      thresh= 1.000E-02 alpha_mix =  0.700 |ddv_scf|^2 =  2.412E-09

     Pert. #  1: Fermi energy shift (Ry) =    -1.0771E-26     1.5306E-40
     Pert. #  2: Fermi energy shift (Ry) =    -3.6687E-27     3.2142E-40
     Pert. #  3: Fermi energy shift (Ry) =    -1.4002E-26     0.0000E+00

      iter #   2 total cpu time :   404.6 secs   av.it.:  11.5
      thresh= 4.911E-06 alpha_mix =  0.700 |ddv_scf|^2 =  8.575E-11

     Pert. #  1: Fermi energy shift (Ry) =    -5.3853E-27    -3.4438E-41
     Pert. #  2: Fermi energy shift (Ry) =    -9.5589E-27    -1.8176E-41
     Pert. #  3: Fermi energy shift (Ry) =     1.0771E-27    -2.8699E-41

      iter #   3 total cpu time :   419.3 secs   av.it.:  11.6
      thresh= 9.260E-07 alpha_mix =  0.700 |ddv_scf|^2 =  2.782E-12

     Pert. #  1: Fermi energy shift (Ry) =    -8.0779E-27    -9.5662E-42
     Pert. #  2: Fermi energy shift (Ry) =     1.1275E-26    -2.7742E-41
     Pert. #  3: Fermi energy shift (Ry) =    -7.5394E-27     3.2525E-41

      iter #   4 total cpu time :   433.6 secs   av.it.:  11.1
      thresh= 1.668E-07 alpha_mix =  0.700 |ddv_scf|^2 =  8.090E-14

     Pert. #  1: Fermi energy shift (Ry) =    -7.5394E-27    -1.1958E-42
     Pert. #  2: Fermi energy shift (Ry) =    -5.6882E-27    -1.1360E-42
     Pert. #  3: Fermi energy shift (Ry) =    -8.6165E-27     1.7937E-42

      iter #   5 total cpu time :   448.3 secs   av.it.:  11.4
      thresh= 2.844E-08 alpha_mix =  0.700 |ddv_scf|^2 =  7.048E-15

     End of self-consistent calculation

     Convergence has been achieved 


     Representation #  11 modes #  25  26  27

     Self-consistent Calculation

     Pert. #  1: Fermi energy shift (Ry) =     2.5849E-26     1.4890E-37
     Pert. #  2: Fermi energy shift (Ry) =    -5.3853E-26     1.8808E-37
     Pert. #  3: Fermi energy shift (Ry) =    -3.5004E-26     9.4040E-38

      iter #   1 total cpu time :   460.3 secs   av.it.:   6.4
      thresh= 1.000E-02 alpha_mix =  0.700 |ddv_scf|^2 =  3.099E-07

     Pert. #  1: Fermi energy shift (Ry) =     4.3082E-27    -1.1020E-39
     Pert. #  2: Fermi energy shift (Ry) =     1.6156E-26    -2.2194E-40
     Pert. #  3: Fermi energy shift (Ry) =    -1.8849E-27    -2.1428E-40

      iter #   2 total cpu time :   475.2 secs   av.it.:  11.7
      thresh= 5.567E-05 alpha_mix =  0.700 |ddv_scf|^2 =  3.390E-08

     Pert. #  1: Fermi energy shift (Ry) =     4.3082E-27    -1.4541E-40
     Pert. #  2: Fermi energy shift (Ry) =     2.1541E-27    -1.8367E-40
     Pert. #  3: Fermi energy shift (Ry) =    -1.3732E-26    -9.1835E-41

      iter #   3 total cpu time :   489.7 secs   av.it.:  11.5
      thresh= 1.841E-05 alpha_mix =  0.700 |ddv_scf|^2 =  1.910E-10

     Pert. #  1: Fermi energy shift (Ry) =     4.3082E-27    -7.2703E-41
     Pert. #  2: Fermi energy shift (Ry) =     4.5236E-26    -9.1835E-41
     Pert. #  3: Fermi energy shift (Ry) =     3.2850E-26    -4.5918E-41

      iter #   4 total cpu time :   504.8 secs   av.it.:  11.9
      thresh= 1.382E-06 alpha_mix =  0.700 |ddv_scf|^2 =  8.105E-12

     Pert. #  1: Fermi energy shift (Ry) =    -1.2925E-26    -6.2180E-42
     Pert. #  2: Fermi energy shift (Ry) =     8.6165E-27     0.0000E+00
     Pert. #  3: Fermi energy shift (Ry) =     1.6156E-27    -1.9132E-42

      iter #   5 total cpu time :   519.8 secs   av.it.:  11.8
      thresh= 2.847E-07 alpha_mix =  0.700 |ddv_scf|^2 =  6.851E-14

     Pert. #  1: Fermi energy shift (Ry) =    -2.1541E-26    -4.3048E-42
     Pert. #  2: Fermi energy shift (Ry) =    -2.5849E-26    -8.6694E-43
     Pert. #  3: Fermi energy shift (Ry) =     2.1541E-27    -8.3704E-43

      iter #   6 total cpu time :   534.6 secs   av.it.:  11.6
      thresh= 2.617E-08 alpha_mix =  0.700 |ddv_scf|^2 =  5.688E-16

     End of self-consistent calculation

     Convergence has been achieved 


     Representation #  12 modes #  28  29  30

     Self-consistent Calculation

     Pert. #  1: Fermi energy shift (Ry) =    -7.4721E-27     2.5077E-36
     Pert. #  2: Fermi energy shift (Ry) =     1.5348E-26    -6.8962E-37
     Pert. #  3: Fermi energy shift (Ry) =    -7.7077E-27     1.2539E-37

      iter #   1 total cpu time :   543.6 secs   av.it.:   3.6
      thresh= 1.000E-02 alpha_mix =  0.700 |ddv_scf|^2 =  2.908E-10

     Pert. #  1: Fermi energy shift (Ry) =     4.2611E-26    -8.8774E-40
     Pert. #  2: Fermi energy shift (Ry) =     3.9952E-26     1.3775E-40
     Pert. #  3: Fermi energy shift (Ry) =     1.4675E-26     2.7551E-40

      iter #   2 total cpu time :   558.3 secs   av.it.:  11.5
      thresh= 1.705E-06 alpha_mix =  0.700 |ddv_scf|^2 =  1.667E-11

     Pert. #  1: Fermi energy shift (Ry) =     9.1550E-27     2.2959E-41
     Pert. #  2: Fermi energy shift (Ry) =     1.0266E-27    -5.7397E-42
     Pert. #  3: Fermi energy shift (Ry) =     8.5828E-27     3.8265E-42

      iter #   3 total cpu time :   572.9 secs   av.it.:  11.4
      thresh= 4.083E-07 alpha_mix =  0.700 |ddv_scf|^2 =  2.850E-13

     Pert. #  1: Fermi energy shift (Ry) =     7.6606E-26     5.5006E-42
     Pert. #  2: Fermi energy shift (Ry) =     2.8290E-26     2.6905E-41
     Pert. #  3: Fermi energy shift (Ry) =     3.3523E-26     8.8487E-42

      iter #   4 total cpu time :   587.6 secs   av.it.:  11.6
      thresh= 5.339E-08 alpha_mix =  0.700 |ddv_scf|^2 =  1.471E-14

     Pert. #  1: Fermi energy shift (Ry) =     1.9791E-26    -1.3393E-41
     Pert. #  2: Fermi energy shift (Ry) =     4.4143E-26     2.8699E-42
     Pert. #  3: Fermi energy shift (Ry) =     2.0935E-26    -7.1746E-42

      iter #   5 total cpu time :   602.2 secs   av.it.:  11.5
      thresh= 1.213E-08 alpha_mix =  0.700 |ddv_scf|^2 =  2.755E-16

     End of self-consistent calculation

     Convergence has been achieved 


     Representation #  13 modes #  31  32  33

     Self-consistent Calculation

     Pert. #  1: Fermi energy shift (Ry) =    -5.3853E-27     1.9748E-36
     Pert. #  2: Fermi energy shift (Ry) =    -1.1848E-26     4.7647E-36
     Pert. #  3: Fermi energy shift (Ry) =     9.6935E-27    -4.0750E-37

      iter #   1 total cpu time :   611.5 secs   av.it.:   3.9
      thresh= 1.000E-02 alpha_mix =  0.700 |ddv_scf|^2 =  4.703E-10

     Pert. #  1: Fermi energy shift (Ry) =     9.1550E-27     1.1479E-41
     Pert. #  2: Fermi energy shift (Ry) =     1.0771E-27     2.4489E-40
     Pert. #  3: Fermi energy shift (Ry) =     3.2312E-27    -3.7499E-40

      iter #   2 total cpu time :   626.0 secs   av.it.:  11.2
      thresh= 2.169E-06 alpha_mix =  0.700 |ddv_scf|^2 =  2.699E-11

     Pert. #  1: Fermi energy shift (Ry) =    -2.6926E-27    -1.4923E-40
     Pert. #  2: Fermi energy shift (Ry) =     8.6165E-27     2.4489E-40
     Pert. #  3: Fermi energy shift (Ry) =    -5.6546E-27    -1.5306E-40

      iter #   3 total cpu time :   640.4 secs   av.it.:  11.3
      thresh= 5.196E-07 alpha_mix =  0.700 |ddv_scf|^2 =  1.284E-13

     Pert. #  1: Fermi energy shift (Ry) =     2.9619E-27    -2.8459E-41
     Pert. #  2: Fermi energy shift (Ry) =     1.9387E-26    -1.3393E-41
     Pert. #  3: Fermi energy shift (Ry) =     1.6156E-27     8.3226E-41

      iter #   4 total cpu time :   654.1 secs   av.it.:  10.6
      thresh= 3.583E-08 alpha_mix =  0.700 |ddv_scf|^2 =  2.772E-16

     End of self-consistent calculation

     Convergence has been achieved 

     Number of q in the star =    1
     List of q in the star:
          1   0.000000000   0.000000000   0.000000000

     Diagonalizing the dynamical matrix

     q = (    0.000000000   0.000000000   0.000000000 ) 

 **************************************************************************
     freq (    1) =       0.337458 [THz] =      11.256374 [cm-1]
     freq (    2) =       0.337458 [THz] =      11.256374 [cm-1]
     freq (    3) =       0.337458 [THz] =      11.256374 [cm-1]
     freq (    4) =      25.573036 [THz] =     853.024671 [cm-1]
     freq (    5) =      25.573036 [THz] =     853.024671 [cm-1]
     freq (    6) =      25.573036 [THz] =     853.024671 [cm-1]
     freq (    7) =      27.559170 [THz] =     919.274962 [cm-1]
     freq (    8) =      27.559170 [THz] =     919.274962 [cm-1]
     freq (    9) =      27.559170 [THz] =     919.274962 [cm-1]
     freq (   10) =      34.483570 [THz] =    1150.248099 [cm-1]
     freq (   11) =      34.483570 [THz] =    1150.248099 [cm-1]
     freq (   12) =      34.483570 [THz] =    1150.248099 [cm-1]
     freq (   13) =      38.165818 [THz] =    1273.074667 [cm-1]
     freq (   14) =      38.165818 [THz] =    1273.074667 [cm-1]
     freq (   15) =      38.165818 [THz] =    1273.074667 [cm-1]
     freq (   16) =      38.628357 [THz] =    1288.503291 [cm-1]
     freq (   17) =      38.628357 [THz] =    1288.503291 [cm-1]
     freq (   18) =      38.628357 [THz] =    1288.503291 [cm-1]
     freq (   19) =      39.779812 [THz] =    1326.911696 [cm-1]
     freq (   20) =      39.779812 [THz] =    1326.911696 [cm-1]
     freq (   21) =      39.779812 [THz] =    1326.911696 [cm-1]
     freq (   22) =      41.265011 [THz] =    1376.452592 [cm-1]
     freq (   23) =      41.265011 [THz] =    1376.452592 [cm-1]
     freq (   24) =      49.549567 [THz] =    1652.795639 [cm-1]
     freq (   25) =      49.549567 [THz] =    1652.795639 [cm-1]
     freq (   26) =      57.555289 [THz] =    1919.837795 [cm-1]
     freq (   27) =      57.555289 [THz] =    1919.837795 [cm-1]
     freq (   28) =      57.555289 [THz] =    1919.837795 [cm-1]
     freq (   29) =      57.986144 [THz] =    1934.209565 [cm-1]
     freq (   30) =      57.986144 [THz] =    1934.209565 [cm-1]
     freq (   31) =      57.986144 [THz] =    1934.209565 [cm-1]
     freq (   32) =      59.197657 [THz] =    1974.621282 [cm-1]
     freq (   33) =      75.004605 [THz] =    2501.884305 [cm-1]
 **************************************************************************

     Mode symmetry, O_h (m-3m)  point group:

     freq (   1-   3) =         11.3  [cm-1]   --> T_1u G_15  G_4- I  
     freq (   4-   6) =        853.0  [cm-1]   --> T_1u G_15  G_4- I  
     freq (   7-   9) =        919.3  [cm-1]   --> T_2g G_25' G_5+ R  
     freq (  10-  12) =       1150.2  [cm-1]   --> T_2u G_25  G_5-    
     freq (  13-  15) =       1273.1  [cm-1]   --> T_1u G_15  G_4- I  
     freq (  16-  18) =       1288.5  [cm-1]   --> T_1g G_15' G_4+    
     freq (  19-  21) =       1326.9  [cm-1]   --> T_2g G_25' G_5+ R  
     freq (  22-  23) =       1376.5  [cm-1]   --> E_u  G_12' G_3-    
     freq (  24-  25) =       1652.8  [cm-1]   --> E_g  G_12  G_3+ R  
     freq (  26-  28) =       1919.8  [cm-1]   --> T_1u G_15  G_4- I  
     freq (  29-  31) =       1934.2  [cm-1]   --> T_2g G_25' G_5+ R  
     freq (  32-  32) =       1974.6  [cm-1]   --> A_2u G_2'  G_2-    
     freq (  33-  33) =       2501.9  [cm-1]   --> A_1g G_1   G_1+ R  

     Gaussian Broadening:   0.005 Ry, ngauss=   0
     DOS =  5.016774 states/spin/Ry/Unit Cell at Ef= 20.136538 eV
     double delta at Ef =773.587739
     lambda(    1)=  0.0000   gamma=    0.00 GHz
     lambda(    2)=  0.0000   gamma=    0.00 GHz
     lambda(    3)=  0.0000   gamma=    0.00 GHz
     lambda(    4)=  0.0000   gamma=    0.00 GHz
     lambda(    5)=  0.0000   gamma=    0.00 GHz
     lambda(    6)=  0.0000   gamma=    0.00 GHz
     lambda(    7)=  0.0323   gamma=  117.56 GHz
     lambda(    8)=  0.0323   gamma=  117.56 GHz
     lambda(    9)=  0.0323   gamma=  117.56 GHz
     lambda(   10)=  0.0000   gamma=    0.01 GHz
     lambda(   11)=  0.0000   gamma=    0.01 GHz
     lambda(   12)=  0.0000   gamma=    0.01 GHz
     lambda(   13)=  0.0000   gamma=    0.01 GHz
     lambda(   14)=  0.0000   gamma=    0.01 GHz
     lambda(   15)=  0.0000   gamma=    0.01 GHz
     lambda(   16)=  0.0591   gamma=  422.20 GHz
     lambda(   17)=  0.0591   gamma=  422.20 GHz
     lambda(   18)=  0.0591   gamma=  422.20 GHz
     lambda(   19)=  0.5613   gamma= 4255.56 GHz
     lambda(   20)=  0.5613   gamma= 4255.56 GHz
     lambda(   21)=  0.5613   gamma= 4255.56 GHz
     lambda(   22)=  0.0001   gamma=    0.58 GHz
     lambda(   23)=  0.0001   gamma=    0.58 GHz
     lambda(   24)=  5.8979   gamma=69370.22 GHz
     lambda(   25)=  5.8979   gamma=69370.22 GHz
     lambda(   26)=  0.0000   gamma=    0.00 GHz
     lambda(   27)=  0.0000   gamma=    0.00 GHz
     lambda(   28)=  0.0000   gamma=    0.00 GHz
     lambda(   29)=  0.5612   gamma= 9040.10 GHz
     lambda(   30)=  0.5612   gamma= 9040.10 GHz
     lambda(   31)=  0.5612   gamma= 9040.10 GHz
     lambda(   32)=  0.0000   gamma=    0.00 GHz
     lambda(   33)=  0.4692   gamma=12645.89 GHz

     Gaussian Broadening:   0.010 Ry, ngauss=   0
     DOS =  3.906818 states/spin/Ry/Unit Cell at Ef= 20.119180 eV
     double delta at Ef =315.628032
     lambda(    1)=  0.0000   gamma=    0.01 GHz
     lambda(    2)=  0.0000   gamma=    0.01 GHz
     lambda(    3)=  0.0000   gamma=    0.01 GHz
     lambda(    4)=  0.0009   gamma=    2.17 GHz
     lambda(    5)=  0.0009   gamma=    2.17 GHz
     lambda(    6)=  0.0009   gamma=    2.17 GHz
     lambda(    7)=  0.0615   gamma=  174.14 GHz
     lambda(    8)=  0.0615   gamma=  174.14 GHz
     lambda(    9)=  0.0615   gamma=  174.14 GHz
     lambda(   10)=  0.0112   gamma=   49.69 GHz
     lambda(   11)=  0.0112   gamma=   49.69 GHz
     lambda(   12)=  0.0112   gamma=   49.69 GHz
     lambda(   13)=  0.0171   gamma=   93.01 GHz
     lambda(   14)=  0.0171   gamma=   93.01 GHz
     lambda(   15)=  0.0171   gamma=   93.01 GHz
     lambda(   16)=  0.0226   gamma=  126.00 GHz
     lambda(   17)=  0.0226   gamma=  126.00 GHz
     lambda(   18)=  0.0226   gamma=  126.00 GHz
     lambda(   19)=  0.3794   gamma= 2240.10 GHz
     lambda(   20)=  0.3794   gamma= 2240.10 GHz
     lambda(   21)=  0.3794   gamma= 2240.10 GHz
     lambda(   22)=  0.0164   gamma=  104.31 GHz
     lambda(   23)=  0.0164   gamma=  104.31 GHz
     lambda(   24)=  3.0887   gamma=28291.36 GHz
     lambda(   25)=  3.0887   gamma=28291.36 GHz
     lambda(   26)=  0.0013   gamma=   15.94 GHz
     lambda(   27)=  0.0013   gamma=   15.94 GHz
     lambda(   28)=  0.0013   gamma=   15.94 GHz
     lambda(   29)=  0.2359   gamma= 2958.72 GHz
     lambda(   30)=  0.2359   gamma= 2958.72 GHz
     lambda(   31)=  0.2359   gamma= 2958.72 GHz
     lambda(   32)=  0.0000   gamma=    0.00 GHz
     lambda(   33)=  0.2632   gamma= 5523.32 GHz

     Gaussian Broadening:   0.015 Ry, ngauss=   0
     DOS =  3.390528 states/spin/Ry/Unit Cell at Ef= 20.109294 eV
     double delta at Ef =209.873998
     lambda(    1)=  0.0000   gamma=    0.05 GHz
     lambda(    2)=  0.0000   gamma=    0.05 GHz
     lambda(    3)=  0.0000   gamma=    0.05 GHz
     lambda(    4)=  0.0090   gamma=   18.99 GHz
     lambda(    5)=  0.0090   gamma=   18.99 GHz
     lambda(    6)=  0.0090   gamma=   18.99 GHz
     lambda(    7)=  0.0717   gamma=  176.34 GHz
     lambda(    8)=  0.0717   gamma=  176.34 GHz
     lambda(    9)=  0.0717   gamma=  176.34 GHz
     lambda(   10)=  0.0693   gamma=  266.97 GHz
     lambda(   11)=  0.0693   gamma=  266.97 GHz
     lambda(   12)=  0.0693   gamma=  266.97 GHz
     lambda(   13)=  0.0677   gamma=  319.43 GHz
     lambda(   14)=  0.0677   gamma=  319.43 GHz
     lambda(   15)=  0.0677   gamma=  319.43 GHz
     lambda(   16)=  0.0178   gamma=   86.22 GHz
     lambda(   17)=  0.0178   gamma=   86.22 GHz
     lambda(   18)=  0.0178   gamma=   86.22 GHz
     lambda(   19)=  0.3224   gamma= 1652.07 GHz
     lambda(   20)=  0.3224   gamma= 1652.07 GHz
     lambda(   21)=  0.3224   gamma= 1652.07 GHz
     lambda(   22)=  0.0225   gamma=  123.86 GHz
     lambda(   23)=  0.0225   gamma=  123.86 GHz
     lambda(   24)=  2.1686   gamma=17238.51 GHz
     lambda(   25)=  2.1686   gamma=17238.51 GHz
     lambda(   26)=  0.0081   gamma=   87.01 GHz
     lambda(   27)=  0.0081   gamma=   87.01 GHz
     lambda(   28)=  0.0081   gamma=   87.01 GHz
     lambda(   29)=  0.1725   gamma= 1878.44 GHz
     lambda(   30)=  0.1725   gamma= 1878.44 GHz
     lambda(   31)=  0.1725   gamma= 1878.44 GHz
     lambda(   32)=  0.0000   gamma=    0.00 GHz
     lambda(   33)=  0.2173   gamma= 3958.14 GHz

     Gaussian Broadening:   0.020 Ry, ngauss=   0
     DOS =  3.016644 states/spin/Ry/Unit Cell at Ef= 20.112433 eV
     double delta at Ef =160.184384
     lambda(    1)=  0.0000   gamma=    0.09 GHz
     lambda(    2)=  0.0000   gamma=    0.09 GHz
     lambda(    3)=  0.0000   gamma=    0.09 GHz
     lambda(    4)=  0.0224   gamma=   42.26 GHz
     lambda(    5)=  0.0224   gamma=   42.26 GHz
     lambda(    6)=  0.0224   gamma=   42.26 GHz
     lambda(    7)=  0.0759   gamma=  166.13 GHz
     lambda(    8)=  0.0759   gamma=  166.13 GHz
     lambda(    9)=  0.0759   gamma=  166.13 GHz
     lambda(   10)=  0.1444   gamma=  494.54 GHz
     lambda(   11)=  0.1444   gamma=  494.54 GHz
     lambda(   12)=  0.1444   gamma=  494.54 GHz
     lambda(   13)=  0.1000   gamma=  419.49 GHz
     lambda(   14)=  0.1000   gamma=  419.49 GHz
     lambda(   15)=  0.1000   gamma=  419.49 GHz
     lambda(   16)=  0.0180   gamma=   77.32 GHz
     lambda(   17)=  0.0180   gamma=   77.32 GHz
     lambda(   18)=  0.0180   gamma=   77.32 GHz
     lambda(   19)=  0.2848   gamma= 1298.27 GHz
     lambda(   20)=  0.2848   gamma= 1298.27 GHz
     lambda(   21)=  0.2848   gamma= 1298.27 GHz
     lambda(   22)=  0.0186   gamma=   91.38 GHz
     lambda(   23)=  0.0186   gamma=   91.38 GHz
     lambda(   24)=  1.6230   gamma=11479.10 GHz
     lambda(   25)=  1.6230   gamma=11479.10 GHz
     lambda(   26)=  0.0170   gamma=  162.56 GHz
     lambda(   27)=  0.0170   gamma=  162.56 GHz
     lambda(   28)=  0.0170   gamma=  162.56 GHz
     lambda(   29)=  0.1548   gamma= 1499.47 GHz
     lambda(   30)=  0.1548   gamma= 1499.47 GHz
     lambda(   31)=  0.1548   gamma= 1499.47 GHz
     lambda(   32)=  0.0000   gamma=    0.21 GHz
     lambda(   33)=  0.1913   gamma= 3099.87 GHz

     Gaussian Broadening:   0.025 Ry, ngauss=   0
     DOS =  3.035271 states/spin/Ry/Unit Cell at Ef= 20.121599 eV
     double delta at Ef =132.986357
     lambda(    1)=  0.0000   gamma=    0.11 GHz
     lambda(    2)=  0.0000   gamma=    0.11 GHz
     lambda(    3)=  0.0000   gamma=    0.11 GHz
     lambda(    4)=  0.0293   gamma=   55.45 GHz
     lambda(    5)=  0.0293   gamma=   55.45 GHz
     lambda(    6)=  0.0293   gamma=   55.45 GHz
     lambda(    7)=  0.0733   gamma=  161.34 GHz
     lambda(    8)=  0.0733   gamma=  161.34 GHz
     lambda(    9)=  0.0733   gamma=  161.34 GHz
     lambda(   10)=  0.1720   gamma=  592.78 GHz
     lambda(   11)=  0.1720   gamma=  592.78 GHz
     lambda(   12)=  0.1720   gamma=  592.78 GHz
     lambda(   13)=  0.0999   gamma=  421.61 GHz
     lambda(   14)=  0.0999   gamma=  421.61 GHz
     lambda(   15)=  0.0999   gamma=  421.61 GHz
     lambda(   16)=  0.0167   gamma=   72.41 GHz
     lambda(   17)=  0.0167   gamma=   72.41 GHz
     lambda(   18)=  0.0167   gamma=   72.41 GHz
     lambda(   19)=  0.2462   gamma= 1129.23 GHz
     lambda(   20)=  0.2462   gamma= 1129.23 GHz
     lambda(   21)=  0.2462   gamma= 1129.23 GHz
     lambda(   22)=  0.0140   gamma=   69.21 GHz
     lambda(   23)=  0.0140   gamma=   69.21 GHz
     lambda(   24)=  1.1823   gamma= 8413.43 GHz
     lambda(   25)=  1.1823   gamma= 8413.43 GHz
     lambda(   26)=  0.0207   gamma=  199.16 GHz
     lambda(   27)=  0.0207   gamma=  199.16 GHz
     lambda(   28)=  0.0207   gamma=  199.16 GHz
     lambda(   29)=  0.1359   gamma= 1324.35 GHz
     lambda(   30)=  0.1359   gamma= 1324.35 GHz
     lambda(   31)=  0.1359   gamma= 1324.35 GHz
     lambda(   32)=  0.0002   gamma=    2.26 GHz
     lambda(   33)=  0.1697   gamma= 2766.64 GHz

     Gaussian Broadening:   0.030 Ry, ngauss=   0
     DOS =  3.341416 states/spin/Ry/Unit Cell at Ef= 20.127806 eV
     double delta at Ef =117.965204
     lambda(    1)=  0.0000   gamma=    0.13 GHz
     lambda(    2)=  0.0000   gamma=    0.13 GHz
     lambda(    3)=  0.0000   gamma=    0.13 GHz
     lambda(    4)=  0.0288   gamma=   60.02 GHz
     lambda(    5)=  0.0288   gamma=   60.02 GHz
     lambda(    6)=  0.0288   gamma=   60.02 GHz
     lambda(    7)=  0.0684   gamma=  165.88 GHz
     lambda(    8)=  0.0684   gamma=  165.88 GHz
     lambda(    9)=  0.0684   gamma=  165.88 GHz
     lambda(   10)=  0.1549   gamma=  587.92 GHz
     lambda(   11)=  0.1549   gamma=  587.92 GHz
     lambda(   12)=  0.1549   gamma=  587.92 GHz
     lambda(   13)=  0.0840   gamma=  390.63 GHz
     lambda(   14)=  0.0840   gamma=  390.63 GHz
     lambda(   15)=  0.0840   gamma=  390.63 GHz
     lambda(   16)=  0.0156   gamma=   74.40 GHz
     lambda(   17)=  0.0156   gamma=   74.40 GHz
     lambda(   18)=  0.0156   gamma=   74.40 GHz
     lambda(   19)=  0.2133   gamma= 1076.95 GHz
     lambda(   20)=  0.2133   gamma= 1076.95 GHz
     lambda(   21)=  0.2133   gamma= 1076.95 GHz
     lambda(   22)=  0.0111   gamma=   60.10 GHz
     lambda(   23)=  0.0111   gamma=   60.10 GHz
     lambda(   24)=  0.8594   gamma= 6732.89 GHz
     lambda(   25)=  0.8594   gamma= 6732.89 GHz
     lambda(   26)=  0.0199   gamma=  210.73 GHz
     lambda(   27)=  0.0199   gamma=  210.73 GHz
     lambda(   28)=  0.0199   gamma=  210.73 GHz
     lambda(   29)=  0.1196   gamma= 1283.05 GHz
     lambda(   30)=  0.1196   gamma= 1283.05 GHz
     lambda(   31)=  0.1196   gamma= 1283.05 GHz
     lambda(   32)=  0.0007   gamma=    7.42 GHz
     lambda(   33)=  0.1471   gamma= 2640.33 GHz

     Gaussian Broadening:   0.035 Ry, ngauss=   0
     DOS =  3.689711 states/spin/Ry/Unit Cell at Ef= 20.131011 eV
     double delta at Ef =108.479452
     lambda(    1)=  0.0000   gamma=    0.15 GHz
     lambda(    2)=  0.0000   gamma=    0.15 GHz
     lambda(    3)=  0.0000   gamma=    0.15 GHz
     lambda(    4)=  0.0267   gamma=   61.48 GHz
     lambda(    5)=  0.0267   gamma=   61.48 GHz
     lambda(    6)=  0.0267   gamma=   61.48 GHz
     lambda(    7)=  0.0647   gamma=  173.10 GHz
     lambda(    8)=  0.0647   gamma=  173.10 GHz
     lambda(    9)=  0.0647   gamma=  173.10 GHz
     lambda(   10)=  0.1306   gamma=  547.06 GHz
     lambda(   11)=  0.1306   gamma=  547.06 GHz
     lambda(   12)=  0.1306   gamma=  547.06 GHz
     lambda(   13)=  0.0700   gamma=  359.01 GHz
     lambda(   14)=  0.0700   gamma=  359.01 GHz
     lambda(   15)=  0.0700   gamma=  359.01 GHz
     lambda(   16)=  0.0153   gamma=   80.20 GHz
     lambda(   17)=  0.0153   gamma=   80.20 GHz
     lambda(   18)=  0.0153   gamma=   80.20 GHz
     lambda(   19)=  0.1891   gamma= 1054.62 GHz
     lambda(   20)=  0.1891   gamma= 1054.62 GHz
     lambda(   21)=  0.1891   gamma= 1054.62 GHz
     lambda(   22)=  0.0096   gamma=   57.81 GHz
     lambda(   23)=  0.0096   gamma=   57.81 GHz
     lambda(   24)=  0.6592   gamma= 5702.49 GHz
     lambda(   25)=  0.6592   gamma= 5702.49 GHz
     lambda(   26)=  0.0187   gamma=  218.44 GHz
     lambda(   27)=  0.0187   gamma=  218.44 GHz
     lambda(   28)=  0.0187   gamma=  218.44 GHz
     lambda(   29)=  0.1091   gamma= 1292.72 GHz
     lambda(   30)=  0.1091   gamma= 1292.72 GHz
     lambda(   31)=  0.1091   gamma= 1292.72 GHz
     lambda(   32)=  0.0012   gamma=   14.48 GHz
     lambda(   33)=  0.1274   gamma= 2524.44 GHz

     Gaussian Broadening:   0.040 Ry, ngauss=   0
     DOS =  3.978946 states/spin/Ry/Unit Cell at Ef= 20.132741 eV
     double delta at Ef =101.272199
     lambda(    1)=  0.0000   gamma=    0.18 GHz
     lambda(    2)=  0.0000   gamma=    0.18 GHz
     lambda(    3)=  0.0000   gamma=    0.18 GHz
     lambda(    4)=  0.0249   gamma=   61.85 GHz
     lambda(    5)=  0.0249   gamma=   61.85 GHz
     lambda(    6)=  0.0249   gamma=   61.85 GHz
     lambda(    7)=  0.0620   gamma=  178.85 GHz
     lambda(    8)=  0.0620   gamma=  178.85 GHz
     lambda(    9)=  0.0620   gamma=  178.85 GHz
     lambda(   10)=  0.1112   gamma=  502.39 GHz
     lambda(   11)=  0.1112   gamma=  502.39 GHz
     lambda(   12)=  0.1112   gamma=  502.39 GHz
     lambda(   13)=  0.0605   gamma=  334.75 GHz
     lambda(   14)=  0.0605   gamma=  334.75 GHz
     lambda(   15)=  0.0605   gamma=  334.75 GHz
     lambda(   16)=  0.0153   gamma=   86.70 GHz
     lambda(   17)=  0.0153   gamma=   86.70 GHz
     lambda(   18)=  0.0153   gamma=   86.70 GHz
     lambda(   19)=  0.1712   gamma= 1029.50 GHz
     lambda(   20)=  0.1712   gamma= 1029.50 GHz
     lambda(   21)=  0.1712   gamma= 1029.50 GHz
     lambda(   22)=  0.0090   gamma=   58.20 GHz
     lambda(   23)=  0.0090   gamma=   58.20 GHz
     lambda(   24)=  0.5337   gamma= 4978.86 GHz
     lambda(   25)=  0.5337   gamma= 4978.86 GHz
     lambda(   26)=  0.0181   gamma=  227.82 GHz
     lambda(   27)=  0.0181   gamma=  227.82 GHz
     lambda(   28)=  0.0181   gamma=  227.82 GHz
     lambda(   29)=  0.1022   gamma= 1305.10 GHz
     lambda(   30)=  0.1022   gamma= 1305.10 GHz
     lambda(   31)=  0.1022   gamma= 1305.10 GHz
     lambda(   32)=  0.0016   gamma=   21.73 GHz
     lambda(   33)=  0.1115   gamma= 2382.44 GHz

     Gaussian Broadening:   0.045 Ry, ngauss=   0
     DOS =  4.190073 states/spin/Ry/Unit Cell at Ef= 20.133690 eV
     double delta at Ef = 95.111975
     lambda(    1)=  0.0000   gamma=    0.22 GHz
     lambda(    2)=  0.0000   gamma=    0.22 GHz
     lambda(    3)=  0.0000   gamma=    0.22 GHz
     lambda(    4)=  0.0235   gamma=   61.60 GHz
     lambda(    5)=  0.0235   gamma=   61.60 GHz
     lambda(    6)=  0.0235   gamma=   61.60 GHz
     lambda(    7)=  0.0600   gamma=  182.32 GHz
     lambda(    8)=  0.0600   gamma=  182.32 GHz
     lambda(    9)=  0.0600   gamma=  182.32 GHz
     lambda(   10)=  0.0975   gamma=  464.07 GHz
     lambda(   11)=  0.0975   gamma=  464.07 GHz
     lambda(   12)=  0.0975   gamma=  464.07 GHz
     lambda(   13)=  0.0547   gamma=  319.10 GHz
     lambda(   14)=  0.0547   gamma=  319.10 GHz
     lambda(   15)=  0.0547   gamma=  319.10 GHz
     lambda(   16)=  0.0155   gamma=   92.29 GHz
     lambda(   17)=  0.0155   gamma=   92.29 GHz
     lambda(   18)=  0.0155   gamma=   92.29 GHz
     lambda(   19)=  0.1575   gamma=  997.34 GHz
     lambda(   20)=  0.1575   gamma=  997.34 GHz
     lambda(   21)=  0.1575   gamma=  997.34 GHz
     lambda(   22)=  0.0087   gamma=   59.57 GHz
     lambda(   23)=  0.0087   gamma=   59.57 GHz
     lambda(   24)=  0.4499   gamma= 4419.57 GHz
     lambda(   25)=  0.4499   gamma= 4419.57 GHz
     lambda(   26)=  0.0180   gamma=  237.92 GHz
     lambda(   27)=  0.0180   gamma=  237.92 GHz
     lambda(   28)=  0.0180   gamma=  237.92 GHz
     lambda(   29)=  0.0970   gamma= 1305.34 GHz
     lambda(   30)=  0.0970   gamma= 1305.34 GHz
     lambda(   31)=  0.0970   gamma= 1305.34 GHz
     lambda(   32)=  0.0020   gamma=   28.25 GHz
     lambda(   33)=  0.0988   gamma= 2223.48 GHz

     Gaussian Broadening:   0.050 Ry, ngauss=   0
     DOS =  4.333002 states/spin/Ry/Unit Cell at Ef= 20.134151 eV
     double delta at Ef = 89.610837
     lambda(    1)=  0.0000   gamma=    0.26 GHz
     lambda(    2)=  0.0000   gamma=    0.26 GHz
     lambda(    3)=  0.0000   gamma=    0.26 GHz
     lambda(    4)=  0.0225   gamma=   60.94 GHz
     lambda(    5)=  0.0225   gamma=   60.94 GHz
     lambda(    6)=  0.0225   gamma=   60.94 GHz
     lambda(    7)=  0.0585   gamma=  183.81 GHz
     lambda(    8)=  0.0585   gamma=  183.81 GHz
     lambda(    9)=  0.0585   gamma=  183.81 GHz
     lambda(   10)=  0.0883   gamma=  434.34 GHz
     lambda(   11)=  0.0883   gamma=  434.34 GHz
     lambda(   12)=  0.0883   gamma=  434.34 GHz
     lambda(   13)=  0.0517   gamma=  311.40 GHz
     lambda(   14)=  0.0517   gamma=  311.40 GHz
     lambda(   15)=  0.0517   gamma=  311.40 GHz
     lambda(   16)=  0.0156   gamma=   96.43 GHz
     lambda(   17)=  0.0156   gamma=   96.43 GHz
     lambda(   18)=  0.0156   gamma=   96.43 GHz
     lambda(   19)=  0.1467   gamma=  960.74 GHz
     lambda(   20)=  0.1467   gamma=  960.74 GHz
     lambda(   21)=  0.1467   gamma=  960.74 GHz
     lambda(   22)=  0.0087   gamma=   61.48 GHz
     lambda(   23)=  0.0087   gamma=   61.48 GHz
     lambda(   24)=  0.3903   gamma= 3964.82 GHz
     lambda(   25)=  0.3903   gamma= 3964.82 GHz
     lambda(   26)=  0.0180   gamma=  247.34 GHz
     lambda(   27)=  0.0180   gamma=  247.34 GHz
     lambda(   28)=  0.0180   gamma=  247.34 GHz
     lambda(   29)=  0.0929   gamma= 1292.54 GHz
     lambda(   30)=  0.0929   gamma= 1292.54 GHz
     lambda(   31)=  0.0929   gamma= 1292.54 GHz
     lambda(   32)=  0.0023   gamma=   33.89 GHz
     lambda(   33)=  0.0886   gamma= 2062.04 GHz

     Calculation of q =   -0.1767767   0.1767767  -0.1767767

     Subspace diagonalization in iterative solution of the eigenvalue problem:
     one sub-group per band group will be used
     scalapack distributed-memory algorithm (size of sub-group:  2*  2 procs)


     Parallelization info
     --------------------
     sticks:   dense  smooth     PW     G-vecs:    dense   smooth      PW
     Min         361     143     47                11089     2810     519
     Max         363     144     48                11091     2812     521
     Sum        2173     859    283                66539    16865    3119


     Title: 
     --                                                                         


     bravais-lattice index     =            0
     lattice parameter (alat)  =       6.2713  a.u.
     unit-cell volume          =     174.4011 (a.u.)^3
     number of atoms/cell      =           11
     number of atomic types    =            2
     number of electrons       =        21.00
     number of Kohn-Sham states=           15
     kinetic-energy cutoff     =      80.0000  Ry
     charge density cutoff     =     800.0000  Ry
     Exchange-correlation= PBE
                           (   1   4   3   4   0   0   0)

     celldm(1)=   6.271259  celldm(2)=   0.000000  celldm(3)=   0.000000
     celldm(4)=   0.000000  celldm(5)=   0.000000  celldm(6)=   0.000000

     crystal axes: (cart. coord. in units of alat)
               a(1) = (  -0.707107   0.000000   0.707107 )  
               a(2) = (   0.000000   0.707107   0.707107 )  
               a(3) = (  -0.707107   0.707107   0.000000 )  

     reciprocal axes: (cart. coord. in units 2 pi/alat)
               b(1) = ( -0.707107 -0.707107  0.707107 )  
               b(2) = (  0.707107  0.707107  0.707107 )  
               b(3) = ( -0.707107  0.707107 -0.707107 )  


     PseudoPot. # 1 for Y  read from file:
     ../pseudo/Y.UPF
     MD5 check sum: 5fe32e6a006803c2ec2edff47948a3c8
     Pseudo is Ultrasoft + core correction, Zval = 11.0
     Generated using &quot;atomic&quot; code by A. Dal Corso  v.6.2.2
     Using radial grid of 1223 points,  6 beta functions with: 
                l(1) =   0
                l(2) =   0
                l(3) =   1
                l(4) =   1
                l(5) =   2
                l(6) =   2
     Q(r) pseudized with 0 coefficients 


     PseudoPot. # 2 for H  read from file:
     ../pseudo/H.UPF
     MD5 check sum: 3f4114867bd07edc7f1424d066fc1888
     Pseudo is Ultrasoft, Zval =  1.0
     Generated using &quot;atomic&quot; code by A. Dal Corso  v.6.3MaX
     Using radial grid of  929 points,  2 beta functions with: 
                l(1) =   0
                l(2) =   0
     Q(r) pseudized with 0 coefficients 


     atomic species   valence    mass     pseudopotential
        Y             11.00    88.90600     Y ( 1.00)
        H              1.00     1.00800     H ( 1.00)

     48 Sym. Ops., with inversion, found



   Cartesian axes

     site n.     atom                  positions (alat units)
         1           Y   tau(   1) = (   0.0000000   0.0000000   0.0000000  )
         2           H   tau(   2) = (  -1.0606602   1.0606602   1.0606602  )
         3           H   tau(   3) = (  -0.3535534   0.3535534   0.3535534  )
         4           H   tau(   4) = (  -0.8783564   0.5358572   0.5358572  )
         5           H   tau(   5) = (  -0.5358572   0.8783564   0.8783564  )
         6           H   tau(   6) = (  -0.5358572   0.5358572   0.5358572  )
         7           H   tau(   7) = (  -0.8783564   0.8783564   0.8783564  )
         8           H   tau(   8) = (  -0.5358572   0.8783564   0.5358572  )
         9           H   tau(   9) = (  -0.8783564   0.5358572   0.8783564  )
        10           H   tau(  10) = (  -0.8783564   0.8783564   0.5358572  )
        11           H   tau(  11) = (  -0.5358572   0.5358572   0.8783564  )

     number of k points=   728  Methfessel-Paxton smearing, width (Ry)=  0.0200

     Number of k-points >= 100: set verbosity='high' to print them.

     Dense  grid:    66539 G-vectors     FFT dimensions: (  60,  60,  60)

     Smooth grid:    16865 G-vectors     FFT dimensions: (  36,  36,  36)

     Estimated max dynamical RAM per process >      42.26 MB

     Estimated total dynamical RAM >     253.54 MB

     The potential is recalculated from file :
     ./tmp/_ph0/yh10.q_2/yh10.save/charge-density

     Starting wfcs are   23 atomic wfcs

     Band Structure Calculation
     Davidson diagonalization with overlap

     ethr =  4.76E-11,  avg # of iterations = 16.2

     total cpu time spent up to now is       80.3 secs

     End of band structure calculation

     Number of k-points >= 100: set verbosity='high' to print the bands.

     the Fermi energy is    20.1124 ev

     Writing output data file ./tmp/_ph0/yh10.q_2/yh10.save/

Possibly too few bands at point    1   0.00000   0.00000   0.00000

Possibly too few bands at point    3  -0.05893   0.05893  -0.05893

Possibly too few bands at point   32   0.05893   0.05893   0.05893

Possibly too few bands at point  145   0.05893  -0.05893  -0.05893

Possibly too few bands at point  147   0.05893  -0.05893   0.05893

Possibly too few bands at point  149  -0.05893  -0.05893  -0.05893

Possibly too few bands at point  154  -0.05893   0.05893  -0.05893

Possibly too few bands at point  160   0.00000   0.00000   0.00000

Possibly too few bands at point  166   0.05893  -0.05893   0.05893

Possibly too few bands at point  192  -0.05893   0.05893   0.05893

     --                                                                         

     bravais-lattice index     =            0
     lattice parameter (alat)  =       6.2713  a.u.
     unit-cell volume          =     174.4011 (a.u.)^3
     number of atoms/cell      =           11
     number of atomic types    =            2
     kinetic-energy cut-off    =      80.0000  Ry
     charge density cut-off    =     800.0000  Ry
     convergence threshold     =      1.0E-14
     beta                      =       0.7000
     number of iterations used =            4
     Exchange-correlation= PBE
                           (   1   4   3   4   0   0   0)


     celldm(1)=    6.27126  celldm(2)=    0.00000  celldm(3)=    0.00000
     celldm(4)=    0.00000  celldm(5)=    0.00000  celldm(6)=    0.00000

     crystal axes: (cart. coord. in units of alat)
               a(1) = ( -0.7071  0.0000  0.7071 )  
               a(2) = (  0.0000  0.7071  0.7071 )  
               a(3) = ( -0.7071  0.7071  0.0000 )  

     reciprocal axes: (cart. coord. in units 2 pi/alat)
               b(1) = ( -0.7071 -0.7071  0.7071 )  
               b(2) = (  0.7071  0.7071  0.7071 )  
               b(3) = ( -0.7071  0.7071 -0.7071 )  


     Atoms inside the unit cell: 

     Cartesian axes

     site n.  atom      mass           positions (alat units)
        1     Y   88.9060   tau(    1) = (    0.00000    0.00000    0.00000  )
        2     H    1.0080   tau(    2) = (   -1.06066    1.06066    1.06066  )
        3     H    1.0080   tau(    3) = (   -0.35355    0.35355    0.35355  )
        4     H    1.0080   tau(    4) = (   -0.87836    0.53586    0.53586  )
        5     H    1.0080   tau(    5) = (   -0.53586    0.87836    0.87836  )
        6     H    1.0080   tau(    6) = (   -0.53586    0.53586    0.53586  )
        7     H    1.0080   tau(    7) = (   -0.87836    0.87836    0.87836  )
        8     H    1.0080   tau(    8) = (   -0.53586    0.87836    0.53586  )
        9     H    1.0080   tau(    9) = (   -0.87836    0.53586    0.87836  )
       10     H    1.0080   tau(   10) = (   -0.87836    0.87836    0.53586  )
       11     H    1.0080   tau(   11) = (   -0.53586    0.53586    0.87836  )

     Computing dynamical matrix for 
                    q = (  -0.1767767   0.1767767  -0.1767767 )

      6 Sym.Ops. (no q -> -q+G )


     G cutoff =  796.9659  (  11091 G-vectors)     FFT grid: ( 60, 60, 60)
     G cutoff =  318.7864  (   2810 G-vectors)  smooth grid: ( 36, 36, 36)

     number of k points=   728  Methfessel-Paxton smearing, width (Ry)=  0.0200

     PseudoPot. # 1 for Y  read from file:
     ../pseudo/Y.UPF
     MD5 check sum: 5fe32e6a006803c2ec2edff47948a3c8
     Pseudo is Ultrasoft + core correction, Zval = 11.0
     Generated using &quot;atomic&quot; code by A. Dal Corso  v.6.2.2
     Using radial grid of 1223 points,  6 beta functions with: 
                l(1) =   0
                l(2) =   0
                l(3) =   1
                l(4) =   1
                l(5) =   2
                l(6) =   2
     Q(r) pseudized with 0 coefficients 


     PseudoPot. # 2 for H  read from file:
     ../pseudo/H.UPF
     MD5 check sum: 3f4114867bd07edc7f1424d066fc1888
     Pseudo is Ultrasoft, Zval =  1.0
     Generated using &quot;atomic&quot; code by A. Dal Corso  v.6.3MaX
     Using radial grid of  929 points,  2 beta functions with: 
                l(1) =   0
                l(2) =   0
     Q(r) pseudized with 0 coefficients 


     Mode symmetry, C_3v (3m)   point group:


     Atomic displacements:
     There are   22 irreducible representations

     Representation     1      1 modes -  To be done

     Representation     2      1 modes -  To be done

     Representation     3      1 modes -  To be done

     Representation     4      1 modes -  To be done

     Representation     5      1 modes -  To be done

     Representation     6      1 modes -  To be done

     Representation     7      1 modes -  To be done

     Representation     8      1 modes -  To be done

     Representation     9      1 modes -  To be done

     Representation    10      1 modes -  To be done

     Representation    11      1 modes -  To be done

     Representation    12      2 modes -  To be done

     Representation    13      2 modes -  To be done

     Representation    14      2 modes -  To be done

     Representation    15      2 modes -  To be done

     Representation    16      2 modes -  To be done

     Representation    17      2 modes -  To be done

     Representation    18      2 modes -  To be done

     Representation    19      2 modes -  To be done

     Representation    20      2 modes -  To be done

     Representation    21      2 modes -  To be done

     Representation    22      2 modes -  To be done



     Alpha used in Ewald sum =   2.8000
     PHONON       :  11m 2.76s CPU  12m49.97s WALL



     Representation #   1 mode #   1

     Self-consistent Calculation

      iter #   1 total cpu time :   782.8 secs   av.it.:   4.5
      thresh= 1.000E-02 alpha_mix =  0.700 |ddv_scf|^2 =  5.830E-05

      iter #   2 total cpu time :   803.7 secs   av.it.:   9.6
      thresh= 7.635E-04 alpha_mix =  0.700 |ddv_scf|^2 =  5.754E-03

      iter #   3 total cpu time :   819.4 secs   av.it.:   6.6
      thresh= 7.586E-03 alpha_mix =  0.700 |ddv_scf|^2 =  4.583E-08

      iter #   4 total cpu time :   842.5 secs   av.it.:  10.8
      thresh= 2.141E-05 alpha_mix =  0.700 |ddv_scf|^2 =  2.859E-08

      iter #   5 total cpu time :   863.4 secs   av.it.:   9.7
      thresh= 1.691E-05 alpha_mix =  0.700 |ddv_scf|^2 =  3.354E-11

      iter #   6 total cpu time :   885.3 secs   av.it.:  10.2
      thresh= 5.791E-07 alpha_mix =  0.700 |ddv_scf|^2 =  8.243E-10

      iter #   7 total cpu time :   901.6 secs   av.it.:   6.9
      thresh= 2.871E-06 alpha_mix =  0.700 |ddv_scf|^2 =  9.387E-12

      iter #   8 total cpu time :   921.4 secs   av.it.:   9.0
      thresh= 3.064E-07 alpha_mix =  0.700 |ddv_scf|^2 =  6.967E-13

      iter #   9 total cpu time :   942.9 secs   av.it.:  10.0
      thresh= 8.347E-08 alpha_mix =  0.700 |ddv_scf|^2 =  2.318E-11

      iter #  10 total cpu time :   959.5 secs   av.it.:   7.1
      thresh= 4.815E-07 alpha_mix =  0.700 |ddv_scf|^2 =  1.566E-14

      iter #  11 total cpu time :   981.0 secs   av.it.:   9.9
      thresh= 1.252E-08 alpha_mix =  0.700 |ddv_scf|^2 =  3.477E-15

     End of self-consistent calculation

     Convergence has been achieved 


     Representation #   2 mode #   2

     Self-consistent Calculation

      iter #   1 total cpu time :  1001.9 secs   av.it.:   7.4
      thresh= 1.000E-02 alpha_mix =  0.700 |ddv_scf|^2 =  6.546E-03

      iter #   2 total cpu time :  1022.8 secs   av.it.:   9.6
      thresh= 8.091E-03 alpha_mix =  0.700 |ddv_scf|^2 =  6.462E-01

      iter #   3 total cpu time :  1043.1 secs   av.it.:   9.2
      thresh= 1.000E-02 alpha_mix =  0.700 |ddv_scf|^2 =  3.735E-06

      iter #   4 total cpu time :  1065.6 secs   av.it.:  10.5
      thresh= 1.933E-04 alpha_mix =  0.700 |ddv_scf|^2 =  3.225E-06

      iter #   5 total cpu time :  1086.5 secs   av.it.:   9.6
      thresh= 1.796E-04 alpha_mix =  0.700 |ddv_scf|^2 =  9.190E-10

      iter #   6 total cpu time :  1108.2 secs   av.it.:  10.1
      thresh= 3.032E-06 alpha_mix =  0.700 |ddv_scf|^2 =  1.001E-10

      iter #   7 total cpu time :  1129.2 secs   av.it.:   9.7
      thresh= 1.001E-06 alpha_mix =  0.700 |ddv_scf|^2 =  2.799E-12

      iter #   8 total cpu time :  1150.7 secs   av.it.:  10.0
      thresh= 1.673E-07 alpha_mix =  0.700 |ddv_scf|^2 =  8.184E-13

      iter #   9 total cpu time :  1171.3 secs   av.it.:   9.5
      thresh= 9.046E-08 alpha_mix =  0.700 |ddv_scf|^2 =  1.543E-11

      iter #  10 total cpu time :  1187.8 secs   av.it.:   7.1
      thresh= 3.928E-07 alpha_mix =  0.700 |ddv_scf|^2 =  4.679E-14

      iter #  11 total cpu time :  1207.6 secs   av.it.:   9.2
      thresh= 2.163E-08 alpha_mix =  0.700 |ddv_scf|^2 =  1.442E-14

      iter #  12 total cpu time :  1225.8 secs   av.it.:   8.2
      thresh= 1.201E-08 alpha_mix =  0.700 |ddv_scf|^2 =  2.224E-16

     End of self-consistent calculation

     Convergence has been achieved 


     Representation #   3 mode #   3

     Self-consistent Calculation

      iter #   1 total cpu time :  1241.9 secs   av.it.:   4.8
      thresh= 1.000E-02 alpha_mix =  0.700 |ddv_scf|^2 =  1.545E-04

      iter #   2 total cpu time :  1262.6 secs   av.it.:   9.6
      thresh= 1.243E-03 alpha_mix =  0.700 |ddv_scf|^2 =  1.516E-02

      iter #   3 total cpu time :  1278.6 secs   av.it.:   6.9
      thresh= 1.000E-02 alpha_mix =  0.700 |ddv_scf|^2 =  2.246E-07

      iter #   4 total cpu time :  1300.7 secs   av.it.:  10.4
      thresh= 4.739E-05 alpha_mix =  0.700 |ddv_scf|^2 =  9.765E-08

      iter #   5 total cpu time :  1321.4 secs   av.it.:   9.6
      thresh= 3.125E-05 alpha_mix =  0.700 |ddv_scf|^2 =  4.973E-11

      iter #   6 total cpu time :  1343.2 secs   av.it.:  10.3
      thresh= 7.052E-07 alpha_mix =  0.700 |ddv_scf|^2 =  1.173E-09

      iter #   7 total cpu time :  1359.2 secs   av.it.:   6.9
      thresh= 3.425E-06 alpha_mix =  0.700 |ddv_scf|^2 =  9.117E-12

      iter #   8 total cpu time :  1378.8 secs   av.it.:   9.1
      thresh= 3.019E-07 alpha_mix =  0.700 |ddv_scf|^2 =  7.904E-13

      iter #   9 total cpu time :  1399.5 secs   av.it.:   9.6
      thresh= 8.890E-08 alpha_mix =  0.700 |ddv_scf|^2 =  1.705E-11

      iter #  10 total cpu time :  1416.1 secs   av.it.:   7.2
      thresh= 4.129E-07 alpha_mix =  0.700 |ddv_scf|^2 =  2.036E-14

      iter #  11 total cpu time :  1436.9 secs   av.it.:   9.6
      thresh= 1.427E-08 alpha_mix =  0.700 |ddv_scf|^2 =  9.261E-16

     End of self-consistent calculation

     Convergence has been achieved 


     Representation #   4 mode #   4

     Self-consistent Calculation

      iter #   1 total cpu time :  1453.0 secs   av.it.:   4.7
      thresh= 1.000E-02 alpha_mix =  0.700 |ddv_scf|^2 =  1.045E-04

      iter #   2 total cpu time :  1474.0 secs   av.it.:   9.6
      thresh= 1.022E-03 alpha_mix =  0.700 |ddv_scf|^2 =  1.025E-02

      iter #   3 total cpu time :  1489.7 secs   av.it.:   6.6
      thresh= 1.000E-02 alpha_mix =  0.700 |ddv_scf|^2 =  1.541E-07

      iter #   4 total cpu time :  1512.1 secs   av.it.:  10.5
      thresh= 3.926E-05 alpha_mix =  0.700 |ddv_scf|^2 =  6.343E-08

      iter #   5 total cpu time :  1533.2 secs   av.it.:   9.7
      thresh= 2.519E-05 alpha_mix =  0.700 |ddv_scf|^2 =  1.420E-10

      iter #   6 total cpu time :  1554.7 secs   av.it.:  10.0
      thresh= 1.192E-06 alpha_mix =  0.700 |ddv_scf|^2 =  2.861E-09

      iter #   7 total cpu time :  1570.7 secs   av.it.:   6.8
      thresh= 5.348E-06 alpha_mix =  0.700 |ddv_scf|^2 =  4.583E-12

      iter #   8 total cpu time :  1591.5 secs   av.it.:   9.5
      thresh= 2.141E-07 alpha_mix =  0.700 |ddv_scf|^2 =  1.381E-12

      iter #   9 total cpu time :  1611.6 secs   av.it.:   9.2
      thresh= 1.175E-07 alpha_mix =  0.700 |ddv_scf|^2 =  1.236E-11

      iter #  10 total cpu time :  1628.9 secs   av.it.:   7.6
      thresh= 3.516E-07 alpha_mix =  0.700 |ddv_scf|^2 =  2.688E-14

      iter #  11 total cpu time :  1650.1 secs   av.it.:   9.8
      thresh= 1.639E-08 alpha_mix =  0.700 |ddv_scf|^2 =  2.810E-15

     End of self-consistent calculation

     Convergence has been achieved 


     Representation #   5 mode #   5

     Self-consistent Calculation

      iter #   1 total cpu time :  1665.6 secs   av.it.:   4.5
      thresh= 1.000E-02 alpha_mix =  0.700 |ddv_scf|^2 =  5.499E-05

      iter #   2 total cpu time :  1686.5 secs   av.it.:   9.6
      thresh= 7.415E-04 alpha_mix =  0.700 |ddv_scf|^2 =  5.410E-03

      iter #   3 total cpu time :  1702.1 secs   av.it.:   6.6
      thresh= 7.355E-03 alpha_mix =  0.700 |ddv_scf|^2 =  5.207E-08

      iter #   4 total cpu time :  1724.9 secs   av.it.:  10.7
      thresh= 2.282E-05 alpha_mix =  0.700 |ddv_scf|^2 =  2.403E-08

      iter #   5 total cpu time :  1746.1 secs   av.it.:   9.8
      thresh= 1.550E-05 alpha_mix =  0.700 |ddv_scf|^2 =  8.534E-11

      iter #   6 total cpu time :  1767.2 secs   av.it.:   9.7
      thresh= 9.238E-07 alpha_mix =  0.700 |ddv_scf|^2 =  1.500E-09

      iter #   7 total cpu time :  1783.7 secs   av.it.:   7.1
      thresh= 3.873E-06 alpha_mix =  0.700 |ddv_scf|^2 =  3.842E-12

      iter #   8 total cpu time :  1804.3 secs   av.it.:   9.4
      thresh= 1.960E-07 alpha_mix =  0.700 |ddv_scf|^2 =  2.179E-12

      iter #   9 total cpu time :  1823.5 secs   av.it.:   8.6
      thresh= 1.476E-07 alpha_mix =  0.700 |ddv_scf|^2 =  3.450E-12

      iter #  10 total cpu time :  1841.0 secs   av.it.:   7.6
      thresh= 1.857E-07 alpha_mix =  0.700 |ddv_scf|^2 =  4.625E-15

     End of self-consistent calculation

     Convergence has been achieved 


     Representation #   6 mode #   6

     Self-consistent Calculation

      iter #   1 total cpu time :  1856.5 secs   av.it.:   4.4
      thresh= 1.000E-02 alpha_mix =  0.700 |ddv_scf|^2 =  1.551E-05

      iter #   2 total cpu time :  1877.5 secs   av.it.:   9.7
      thresh= 3.938E-04 alpha_mix =  0.700 |ddv_scf|^2 =  1.513E-03

      iter #   3 total cpu time :  1893.1 secs   av.it.:   6.6
      thresh= 3.890E-03 alpha_mix =  0.700 |ddv_scf|^2 =  3.687E-08

      iter #   4 total cpu time :  1915.7 secs   av.it.:  10.5
      thresh= 1.920E-05 alpha_mix =  0.700 |ddv_scf|^2 =  7.121E-09

      iter #   5 total cpu time :  1937.4 secs   av.it.:  10.0
      thresh= 8.439E-06 alpha_mix =  0.700 |ddv_scf|^2 =  2.316E-10

      iter #   6 total cpu time :  1959.2 secs   av.it.:  10.1
      thresh= 1.522E-06 alpha_mix =  0.700 |ddv_scf|^2 =  3.365E-10

      iter #   7 total cpu time :  1975.5 secs   av.it.:   6.9
      thresh= 1.834E-06 alpha_mix =  0.700 |ddv_scf|^2 =  2.545E-11

      iter #   8 total cpu time :  1994.7 secs   av.it.:   8.6
      thresh= 5.045E-07 alpha_mix =  0.700 |ddv_scf|^2 =  1.843E-12

      iter #   9 total cpu time :  2014.2 secs   av.it.:   8.9
      thresh= 1.358E-07 alpha_mix =  0.700 |ddv_scf|^2 =  9.973E-12

      iter #  10 total cpu time :  2032.0 secs   av.it.:   7.9
      thresh= 3.158E-07 alpha_mix =  0.700 |ddv_scf|^2 =  1.159E-14

      iter #  11 total cpu time :  2054.9 secs   av.it.:  10.8
      thresh= 1.077E-08 alpha_mix =  0.700 |ddv_scf|^2 =  6.474E-15

     End of self-consistent calculation

     Convergence has been achieved 


     Representation #   7 mode #   7

     Self-consistent Calculation

      iter #   1 total cpu time :  2070.5 secs   av.it.:   4.5
      thresh= 1.000E-02 alpha_mix =  0.700 |ddv_scf|^2 =  5.499E-05

      iter #   2 total cpu time :  2091.5 secs   av.it.:   9.6
      thresh= 7.415E-04 alpha_mix =  0.700 |ddv_scf|^2 =  5.410E-03

      iter #   3 total cpu time :  2107.2 secs   av.it.:   6.6
      thresh= 7.355E-03 alpha_mix =  0.700 |ddv_scf|^2 =  5.207E-08

      iter #   4 total cpu time :  2130.0 secs   av.it.:  10.7
      thresh= 2.282E-05 alpha_mix =  0.700 |ddv_scf|^2 =  2.403E-08

      iter #   5 total cpu time :  2151.2 secs   av.it.:   9.8
      thresh= 1.550E-05 alpha_mix =  0.700 |ddv_scf|^2 =  8.534E-11

      iter #   6 total cpu time :  2172.3 secs   av.it.:   9.7
      thresh= 9.238E-07 alpha_mix =  0.700 |ddv_scf|^2 =  1.500E-09

      iter #   7 total cpu time :  2189.0 secs   av.it.:   7.1
      thresh= 3.873E-06 alpha_mix =  0.700 |ddv_scf|^2 =  3.842E-12

      iter #   8 total cpu time :  2209.6 secs   av.it.:   9.4
      thresh= 1.960E-07 alpha_mix =  0.700 |ddv_scf|^2 =  2.179E-12

      iter #   9 total cpu time :  2228.9 secs   av.it.:   8.6
      thresh= 1.476E-07 alpha_mix =  0.700 |ddv_scf|^2 =  3.450E-12

      iter #  10 total cpu time :  2246.3 secs   av.it.:   7.6
      thresh= 1.857E-07 alpha_mix =  0.700 |ddv_scf|^2 =  4.625E-15

     End of self-consistent calculation

     Convergence has been achieved 


     Representation #   8 mode #   8

     Self-consistent Calculation

      iter #   1 total cpu time :  2262.3 secs   av.it.:   4.6
      thresh= 1.000E-02 alpha_mix =  0.700 |ddv_scf|^2 =  6.551E-05

      iter #   2 total cpu time :  2283.3 secs   av.it.:   9.6
      thresh= 8.094E-04 alpha_mix =  0.700 |ddv_scf|^2 =  6.421E-03

      iter #   3 total cpu time :  2299.0 secs   av.it.:   6.6
      thresh= 8.013E-03 alpha_mix =  0.700 |ddv_scf|^2 =  1.075E-07

      iter #   4 total cpu time :  2321.6 secs   av.it.:  10.5
      thresh= 3.278E-05 alpha_mix =  0.700 |ddv_scf|^2 =  4.071E-08

      iter #   5 total cpu time :  2342.8 secs   av.it.:   9.7
      thresh= 2.018E-05 alpha_mix =  0.700 |ddv_scf|^2 =  1.077E-10

      iter #   6 total cpu time :  2365.4 secs   av.it.:  10.4
      thresh= 1.038E-06 alpha_mix =  0.700 |ddv_scf|^2 =  2.059E-10

      iter #   7 total cpu time :  2382.3 secs   av.it.:   7.1
      thresh= 1.435E-06 alpha_mix =  0.700 |ddv_scf|^2 =  4.010E-11

      iter #   8 total cpu time :  2401.2 secs   av.it.:   8.3
      thresh= 6.332E-07 alpha_mix =  0.700 |ddv_scf|^2 =  1.358E-12

      iter #   9 total cpu time :  2421.8 secs   av.it.:   9.3
      thresh= 1.165E-07 alpha_mix =  0.700 |ddv_scf|^2 =  1.845E-11

      iter #  10 total cpu time :  2438.9 secs   av.it.:   7.3
      thresh= 4.295E-07 alpha_mix =  0.700 |ddv_scf|^2 =  3.727E-14

      iter #  11 total cpu time :  2459.8 secs   av.it.:   9.7
      thresh= 1.931E-08 alpha_mix =  0.700 |ddv_scf|^2 =  3.636E-15

     End of self-consistent calculation

     Convergence has been achieved 


     Representation #   9 mode #   9

     Self-consistent Calculation

      iter #   1 total cpu time :  2475.5 secs   av.it.:   4.5
      thresh= 1.000E-02 alpha_mix =  0.700 |ddv_scf|^2 =  5.830E-05

      iter #   2 total cpu time :  2496.5 secs   av.it.:   9.6
      thresh= 7.635E-04 alpha_mix =  0.700 |ddv_scf|^2 =  5.754E-03

      iter #   3 total cpu time :  2512.1 secs   av.it.:   6.6
      thresh= 7.586E-03 alpha_mix =  0.700 |ddv_scf|^2 =  4.583E-08

      iter #   4 total cpu time :  2535.2 secs   av.it.:  10.8
      thresh= 2.141E-05 alpha_mix =  0.700 |ddv_scf|^2 =  2.859E-08

      iter #   5 total cpu time :  2556.4 secs   av.it.:   9.7
      thresh= 1.691E-05 alpha_mix =  0.700 |ddv_scf|^2 =  3.354E-11

      iter #   6 total cpu time :  2578.3 secs   av.it.:  10.2
      thresh= 5.791E-07 alpha_mix =  0.700 |ddv_scf|^2 =  8.241E-10

      iter #   7 total cpu time :  2594.7 secs   av.it.:   6.9
      thresh= 2.871E-06 alpha_mix =  0.700 |ddv_scf|^2 =  9.388E-12

      iter #   8 total cpu time :  2614.5 secs   av.it.:   9.0
      thresh= 3.064E-07 alpha_mix =  0.700 |ddv_scf|^2 =  6.967E-13

      iter #   9 total cpu time :  2636.1 secs   av.it.:  10.0
      thresh= 8.347E-08 alpha_mix =  0.700 |ddv_scf|^2 =  2.318E-11

      iter #  10 total cpu time :  2652.6 secs   av.it.:   7.1
      thresh= 4.815E-07 alpha_mix =  0.700 |ddv_scf|^2 =  1.566E-14

      iter #  11 total cpu time :  2674.0 secs   av.it.:   9.9
      thresh= 1.252E-08 alpha_mix =  0.700 |ddv_scf|^2 =  3.477E-15

     End of self-consistent calculation

     Convergence has been achieved 


     Representation #  10 mode #  10

     Self-consistent Calculation

      iter #   1 total cpu time :  2688.2 secs   av.it.:   3.7
      thresh= 1.000E-02 alpha_mix =  0.700 |ddv_scf|^2 =  2.421E-09

      iter #   2 total cpu time :  2710.3 secs   av.it.:  10.3
      thresh= 4.921E-06 alpha_mix =  0.700 |ddv_scf|^2 =  1.609E-10

      iter #   3 total cpu time :  2732.0 secs   av.it.:  10.1
      thresh= 1.268E-06 alpha_mix =  0.700 |ddv_scf|^2 =  7.832E-13

      iter #   4 total cpu time :  2753.1 secs   av.it.:   9.7
      thresh= 8.850E-08 alpha_mix =  0.700 |ddv_scf|^2 =  1.319E-15

     End of self-consistent calculation

     Convergence has been achieved 


     Representation #  11 mode #  11

     Self-consistent Calculation

      iter #   1 total cpu time :  2767.4 secs   av.it.:   3.7
      thresh= 1.000E-02 alpha_mix =  0.700 |ddv_scf|^2 =  2.421E-09

      iter #   2 total cpu time :  2789.5 secs   av.it.:  10.3
      thresh= 4.921E-06 alpha_mix =  0.700 |ddv_scf|^2 =  1.609E-10

      iter #   3 total cpu time :  2811.1 secs   av.it.:  10.1
      thresh= 1.268E-06 alpha_mix =  0.700 |ddv_scf|^2 =  7.832E-13

      iter #   4 total cpu time :  2832.2 secs   av.it.:   9.7
      thresh= 8.850E-08 alpha_mix =  0.700 |ddv_scf|^2 =  1.319E-15

     End of self-consistent calculation

     Convergence has been achieved 


     Representation #  12 modes #  12  13

     Self-consistent Calculation

      iter #   1 total cpu time :  2859.5 secs   av.it.:   4.2
      thresh= 1.000E-02 alpha_mix =  0.700 |ddv_scf|^2 =  9.480E-09

      iter #   2 total cpu time :  2908.9 secs   av.it.:  11.8
      thresh= 9.737E-06 alpha_mix =  0.700 |ddv_scf|^2 =  7.976E-10

      iter #   3 total cpu time :  2957.8 secs   av.it.:  11.6
      thresh= 2.824E-06 alpha_mix =  0.700 |ddv_scf|^2 =  1.720E-11

      iter #   4 total cpu time :  3006.7 secs   av.it.:  11.6
      thresh= 4.147E-07 alpha_mix =  0.700 |ddv_scf|^2 =  7.186E-13

      iter #   5 total cpu time :  3055.5 secs   av.it.:  11.5
      thresh= 8.477E-08 alpha_mix =  0.700 |ddv_scf|^2 =  1.842E-14

      iter #   6 total cpu time :  3103.4 secs   av.it.:  11.4
      thresh= 1.357E-08 alpha_mix =  0.700 |ddv_scf|^2 =  5.717E-16

     End of self-consistent calculation

     Convergence has been achieved 


     Representation #  13 modes #  14  15

     Self-consistent Calculation

      iter #   1 total cpu time :  3133.5 secs   av.it.:   4.2
      thresh= 1.000E-02 alpha_mix =  0.700 |ddv_scf|^2 =  8.395E-09

      iter #   2 total cpu time :  3183.1 secs   av.it.:  11.8
      thresh= 9.162E-06 alpha_mix =  0.700 |ddv_scf|^2 =  6.630E-10

      iter #   3 total cpu time :  3231.9 secs   av.it.:  11.6
      thresh= 2.575E-06 alpha_mix =  0.700 |ddv_scf|^2 =  1.802E-11

      iter #   4 total cpu time :  3280.6 secs   av.it.:  11.5
      thresh= 4.245E-07 alpha_mix =  0.700 |ddv_scf|^2 =  5.749E-13

      iter #   5 total cpu time :  3329.3 secs   av.it.:  11.5
      thresh= 7.582E-08 alpha_mix =  0.700 |ddv_scf|^2 =  2.790E-14

      iter #   6 total cpu time :  3377.6 secs   av.it.:  11.4
      thresh= 1.670E-08 alpha_mix =  0.700 |ddv_scf|^2 =  3.180E-16

     End of self-consistent calculation

     Convergence has been achieved 


     Representation #  14 modes #  16  17

     Self-consistent Calculation

      iter #   1 total cpu time :  3407.8 secs   av.it.:   4.2
      thresh= 1.000E-02 alpha_mix =  0.700 |ddv_scf|^2 =  1.028E-08

      iter #   2 total cpu time :  3457.7 secs   av.it.:  11.8
      thresh= 1.014E-05 alpha_mix =  0.700 |ddv_scf|^2 =  9.183E-10

      iter #   3 total cpu time :  3506.7 secs   av.it.:  11.6
      thresh= 3.030E-06 alpha_mix =  0.700 |ddv_scf|^2 =  1.694E-11

      iter #   4 total cpu time :  3555.8 secs   av.it.:  11.6
      thresh= 4.116E-07 alpha_mix =  0.700 |ddv_scf|^2 =  6.963E-13

      iter #   5 total cpu time :  3604.9 secs   av.it.:  11.6
      thresh= 8.345E-08 alpha_mix =  0.700 |ddv_scf|^2 =  2.005E-14

      iter #   6 total cpu time :  3653.2 secs   av.it.:  11.4
      thresh= 1.416E-08 alpha_mix =  0.700 |ddv_scf|^2 =  5.985E-16

     End of self-consistent calculation

     Convergence has been achieved 


     Representation #  15 modes #  18  19

     Self-consistent Calculation

      iter #   1 total cpu time :  3682.8 secs   av.it.:   4.1
      thresh= 1.000E-02 alpha_mix =  0.700 |ddv_scf|^2 =  1.146E-08

      iter #   2 total cpu time :  3732.1 secs   av.it.:  11.6
      thresh= 1.070E-05 alpha_mix =  0.700 |ddv_scf|^2 =  9.928E-10

      iter #   3 total cpu time :  3780.8 secs   av.it.:  11.5
      thresh= 3.151E-06 alpha_mix =  0.700 |ddv_scf|^2 =  1.485E-11

      iter #   4 total cpu time :  3829.3 secs   av.it.:  11.5
      thresh= 3.854E-07 alpha_mix =  0.700 |ddv_scf|^2 =  8.224E-13

      iter #   5 total cpu time :  3877.8 secs   av.it.:  11.4
      thresh= 9.069E-08 alpha_mix =  0.700 |ddv_scf|^2 =  1.760E-14

      iter #   6 total cpu time :  3926.1 secs   av.it.:  11.3
      thresh= 1.327E-08 alpha_mix =  0.700 |ddv_scf|^2 =  6.683E-16

     End of self-consistent calculation

     Convergence has been achieved 


     Representation #  16 modes #  20  21

     Self-consistent Calculation

      iter #   1 total cpu time :  3955.0 secs   av.it.:   3.8
      thresh= 1.000E-02 alpha_mix =  0.700 |ddv_scf|^2 =  2.378E-09

      iter #   2 total cpu time :  4004.4 secs   av.it.:  11.7
      thresh= 4.877E-06 alpha_mix =  0.700 |ddv_scf|^2 =  1.671E-10

      iter #   3 total cpu time :  4053.0 secs   av.it.:  11.4
      thresh= 1.293E-06 alpha_mix =  0.700 |ddv_scf|^2 =  8.863E-12

      iter #   4 total cpu time :  4101.7 secs   av.it.:  11.5
      thresh= 2.977E-07 alpha_mix =  0.700 |ddv_scf|^2 =  3.512E-13

      iter #   5 total cpu time :  4150.6 secs   av.it.:  11.5
      thresh= 5.926E-08 alpha_mix =  0.700 |ddv_scf|^2 =  8.768E-15

     End of self-consistent calculation

     Convergence has been achieved 


     Representation #  17 modes #  22  23

     Self-consistent Calculation

      iter #   1 total cpu time :  4180.6 secs   av.it.:   4.2
      thresh= 1.000E-02 alpha_mix =  0.700 |ddv_scf|^2 =  1.217E-08

      iter #   2 total cpu time :  4230.4 secs   av.it.:  11.8
      thresh= 1.103E-05 alpha_mix =  0.700 |ddv_scf|^2 =  1.191E-09

      iter #   3 total cpu time :  4279.4 secs   av.it.:  11.5
      thresh= 3.451E-06 alpha_mix =  0.700 |ddv_scf|^2 =  1.688E-11

[...]
     lambda(   18)=  0.0060   gamma=   37.74 GHz
     lambda(   19)=  0.0159   gamma=  102.28 GHz
     lambda(   20)=  0.0159   gamma=  102.28 GHz
     lambda(   21)=  0.0312   gamma=  207.65 GHz
     lambda(   22)=  0.0285   gamma=  216.24 GHz
     lambda(   23)=  0.0285   gamma=  216.24 GHz
     lambda(   24)=  0.0026   gamma=   19.54 GHz
     lambda(   25)=  0.0200   gamma=  167.15 GHz
     lambda(   26)=  0.0200   gamma=  167.15 GHz
     lambda(   27)=  0.0022   gamma=   18.59 GHz
     lambda(   28)=  0.0466   gamma=  395.24 GHz
     lambda(   29)=  0.0010   gamma=   10.02 GHz
     lambda(   30)=  0.0389   gamma=  439.09 GHz
     lambda(   31)=  0.0066   gamma=   76.85 GHz
     lambda(   32)=  0.0066   gamma=   76.85 GHz
     lambda(   33)=  0.0273   gamma=  399.05 GHz

     Gaussian Broadening:   0.020 Ry, ngauss=   0
     DOS =  3.016647 states/spin/Ry/Unit Cell at Ef= 20.112434 eV
     double delta at Ef = 21.057585
     lambda(    1)=  0.0168   gamma=    2.26 GHz
     lambda(    2)=  0.0168   gamma=    2.26 GHz
     lambda(    3)=  0.0125   gamma=    1.75 GHz
     lambda(    4)=  0.0436   gamma=   63.86 GHz
     lambda(    5)=  0.0194   gamma=   29.23 GHz
     lambda(    6)=  0.0386   gamma=   77.88 GHz
     lambda(    7)=  0.0162   gamma=   34.06 GHz
     lambda(    8)=  0.0162   gamma=   34.06 GHz
     lambda(    9)=  0.1024   gamma=  324.68 GHz
     lambda(   10)=  0.0485   gamma=  158.28 GHz
     lambda(   11)=  0.0485   gamma=  158.28 GHz
     lambda(   12)=  0.0545   gamma=  184.85 GHz
     lambda(   13)=  0.0123   gamma=   49.69 GHz
     lambda(   14)=  0.1199   gamma=  517.63 GHz
     lambda(   15)=  0.0088   gamma=   42.19 GHz
     lambda(   16)=  0.0455   gamma=  223.96 GHz
     lambda(   17)=  0.0455   gamma=  223.96 GHz
     lambda(   18)=  0.0117   gamma=   65.63 GHz
     lambda(   19)=  0.0403   gamma=  230.30 GHz
     lambda(   20)=  0.0403   gamma=  230.30 GHz
     lambda(   21)=  0.0470   gamma=  278.31 GHz
     lambda(   22)=  0.0572   gamma=  386.16 GHz
     lambda(   23)=  0.0572   gamma=  386.16 GHz
     lambda(   24)=  0.0100   gamma=   67.83 GHz
     lambda(   25)=  0.0410   gamma=  305.19 GHz
     lambda(   26)=  0.0410   gamma=  305.19 GHz
     lambda(   27)=  0.0061   gamma=   45.59 GHz
     lambda(   28)=  0.0619   gamma=  467.00 GHz
     lambda(   29)=  0.0041   gamma=   36.63 GHz
     lambda(   30)=  0.0516   gamma=  518.18 GHz
     lambda(   31)=  0.0114   gamma=  118.99 GHz
     lambda(   32)=  0.0114   gamma=  118.99 GHz
     lambda(   33)=  0.0372   gamma=  484.68 GHz

     Gaussian Broadening:   0.025 Ry, ngauss=   0
     DOS =  3.035274 states/spin/Ry/Unit Cell at Ef= 20.121600 eV
     double delta at Ef = 26.215940
     lambda(    1)=  0.0210   gamma=    2.85 GHz
     lambda(    2)=  0.0210   gamma=    2.85 GHz
     lambda(    3)=  0.0180   gamma=    2.54 GHz
     lambda(    4)=  0.0558   gamma=   82.25 GHz
     lambda(    5)=  0.0407   gamma=   61.83 GHz
     lambda(    6)=  0.0736   gamma=  149.24 GHz
     lambda(    7)=  0.0229   gamma=   48.62 GHz
     lambda(    8)=  0.0229   gamma=   48.62 GHz
     lambda(    9)=  0.1440   gamma=  459.76 GHz
     lambda(   10)=  0.0662   gamma=  217.33 GHz
     lambda(   11)=  0.0662   gamma=  217.33 GHz
     lambda(   12)=  0.0578   gamma=  197.44 GHz
     lambda(   13)=  0.0182   gamma=   73.98 GHz
     lambda(   14)=  0.1241   gamma=  538.91 GHz
     lambda(   15)=  0.0121   gamma=   58.28 GHz
     lambda(   16)=  0.0510   gamma=  252.27 GHz
     lambda(   17)=  0.0510   gamma=  252.27 GHz
     lambda(   18)=  0.0186   gamma=  104.71 GHz
     lambda(   19)=  0.0571   gamma=  328.04 GHz
     lambda(   20)=  0.0571   gamma=  328.04 GHz
     lambda(   21)=  0.0593   gamma=  353.31 GHz
     lambda(   22)=  0.0693   gamma=  471.07 GHz
     lambda(   23)=  0.0693   gamma=  471.07 GHz
     lambda(   24)=  0.0193   gamma=  132.04 GHz
     lambda(   25)=  0.0561   gamma=  420.46 GHz
     lambda(   26)=  0.0561   gamma=  420.46 GHz
     lambda(   27)=  0.0100   gamma=   74.92 GHz
     lambda(   28)=  0.0594   gamma=  450.80 GHz
     lambda(   29)=  0.0090   gamma=   80.42 GHz
     lambda(   30)=  0.0526   gamma=  531.56 GHz
     lambda(   31)=  0.0139   gamma=  145.49 GHz
     lambda(   32)=  0.0139   gamma=  145.49 GHz
     lambda(   33)=  0.0370   gamma=  484.80 GHz

     Gaussian Broadening:   0.030 Ry, ngauss=   0
     DOS =  3.341419 states/spin/Ry/Unit Cell at Ef= 20.127806 eV
     double delta at Ef = 29.790450
     lambda(    1)=  0.0238   gamma=    3.54 GHz
     lambda(    2)=  0.0238   gamma=    3.54 GHz
     lambda(    3)=  0.0219   gamma=    3.41 GHz
     lambda(    4)=  0.0676   gamma=  109.68 GHz
     lambda(    5)=  0.0556   gamma=   92.84 GHz
     lambda(    6)=  0.0966   gamma=  215.78 GHz
     lambda(    7)=  0.0261   gamma=   60.98 GHz
     lambda(    8)=  0.0261   gamma=   60.98 GHz
     lambda(    9)=  0.1689   gamma=  593.43 GHz
     lambda(   10)=  0.0725   gamma=  261.92 GHz
     lambda(   11)=  0.0725   gamma=  261.92 GHz
     lambda(   12)=  0.0587   gamma=  220.56 GHz
     lambda(   13)=  0.0206   gamma=   92.46 GHz
     lambda(   14)=  0.1170   gamma=  559.61 GHz
     lambda(   15)=  0.0127   gamma=   67.34 GHz
     lambda(   16)=  0.0507   gamma=  276.49 GHz
     lambda(   17)=  0.0507   gamma=  276.49 GHz
     lambda(   18)=  0.0239   gamma=  148.26 GHz
     lambda(   19)=  0.0591   gamma=  373.65 GHz
     lambda(   20)=  0.0591   gamma=  373.65 GHz
     lambda(   21)=  0.0637   gamma=  417.61 GHz
     lambda(   22)=  0.0650   gamma=  486.51 GHz
     lambda(   23)=  0.0650   gamma=  486.51 GHz
     lambda(   24)=  0.0246   gamma=  185.13 GHz
     lambda(   25)=  0.0581   gamma=  478.72 GHz
     lambda(   26)=  0.0581   gamma=  478.72 GHz
     lambda(   27)=  0.0119   gamma=   98.42 GHz
     lambda(   28)=  0.0515   gamma=  430.15 GHz
     lambda(   29)=  0.0128   gamma=  124.89 GHz
     lambda(   30)=  0.0478   gamma=  532.57 GHz
     lambda(   31)=  0.0138   gamma=  159.26 GHz
     lambda(   32)=  0.0138   gamma=  159.26 GHz
     lambda(   33)=  0.0329   gamma=  474.65 GHz

     Gaussian Broadening:   0.035 Ry, ngauss=   0
     DOS =  3.689713 states/spin/Ry/Unit Cell at Ef= 20.131011 eV
     double delta at Ef = 32.210019
     lambda(    1)=  0.0257   gamma=    4.24 GHz
     lambda(    2)=  0.0257   gamma=    4.24 GHz
     lambda(    3)=  0.0246   gamma=    4.22 GHz
     lambda(    4)=  0.0816   gamma=  146.32 GHz
     lambda(    5)=  0.0648   gamma=  119.60 GHz
     lambda(    6)=  0.1065   gamma=  262.50 GHz
     lambda(    7)=  0.0276   gamma=   71.07 GHz
     lambda(    8)=  0.0276   gamma=   71.07 GHz
     lambda(    9)=  0.1789   gamma=  694.18 GHz
     lambda(   10)=  0.0734   gamma=  292.77 GHz
     lambda(   11)=  0.0734   gamma=  292.77 GHz
     lambda(   12)=  0.0604   gamma=  250.58 GHz
     lambda(   13)=  0.0214   gamma=  105.62 GHz
     lambda(   14)=  0.1095   gamma=  577.90 GHz
     lambda(   15)=  0.0122   gamma=   71.62 GHz
     lambda(   16)=  0.0495   gamma=  297.78 GHz
     lambda(   17)=  0.0495   gamma=  297.78 GHz
     lambda(   18)=  0.0274   gamma=  187.39 GHz
     lambda(   19)=  0.0560   gamma=  391.21 GHz
     lambda(   20)=  0.0560   gamma=  391.21 GHz
     lambda(   21)=  0.0638   gamma=  462.13 GHz
     lambda(   22)=  0.0573   gamma=  473.54 GHz
     lambda(   23)=  0.0573   gamma=  473.54 GHz
     lambda(   24)=  0.0271   gamma=  225.35 GHz
     lambda(   25)=  0.0548   gamma=  498.74 GHz
     lambda(   26)=  0.0548   gamma=  498.74 GHz
     lambda(   27)=  0.0132   gamma=  120.07 GHz
     lambda(   28)=  0.0452   gamma=  416.92 GHz
     lambda(   29)=  0.0155   gamma=  167.00 GHz
     lambda(   30)=  0.0436   gamma=  536.02 GHz
     lambda(   31)=  0.0133   gamma=  169.16 GHz
     lambda(   32)=  0.0133   gamma=  169.16 GHz
     lambda(   33)=  0.0291   gamma=  463.84 GHz

     Gaussian Broadening:   0.040 Ry, ngauss=   0
     DOS =  3.978947 states/spin/Ry/Unit Cell at Ef= 20.132741 eV
     double delta at Ef = 34.029370
     lambda(    1)=  0.0274   gamma=    4.87 GHz
     lambda(    2)=  0.0274   gamma=    4.87 GHz
     lambda(    3)=  0.0268   gamma=    4.97 GHz
     lambda(    4)=  0.0971   gamma=  187.70 GHz
     lambda(    5)=  0.0724   gamma=  144.01 GHz
     lambda(    6)=  0.1096   gamma=  291.37 GHz
     lambda(    7)=  0.0288   gamma=   80.14 GHz
     lambda(    8)=  0.0288   gamma=   80.14 GHz
     lambda(    9)=  0.1822   gamma=  762.54 GHz
     lambda(   10)=  0.0732   gamma=  314.94 GHz
     lambda(   11)=  0.0732   gamma=  314.94 GHz
     lambda(   12)=  0.0628   gamma=  281.05 GHz
     lambda(   13)=  0.0218   gamma=  116.42 GHz
     lambda(   14)=  0.1041   gamma=  592.47 GHz
     lambda(   15)=  0.0117   gamma=   73.69 GHz
     lambda(   16)=  0.0488   gamma=  316.59 GHz
     lambda(   17)=  0.0488   gamma=  316.59 GHz
     lambda(   18)=  0.0298   gamma=  219.93 GHz
     lambda(   19)=  0.0530   gamma=  399.10 GHz
     lambda(   20)=  0.0530   gamma=  399.10 GHz
     lambda(   21)=  0.0632   gamma=  493.29 GHz
     lambda(   22)=  0.0513   gamma=  456.91 GHz
     lambda(   23)=  0.0513   gamma=  456.91 GHz
     lambda(   24)=  0.0287   gamma=  257.75 GHz
     lambda(   25)=  0.0513   gamma=  503.71 GHz
     lambda(   26)=  0.0513   gamma=  503.71 GHz
     lambda(   27)=  0.0144   gamma=  141.66 GHz
     lambda(   28)=  0.0413   gamma=  411.18 GHz
     lambda(   29)=  0.0179   gamma=  208.17 GHz
     lambda(   30)=  0.0412   gamma=  546.16 GHz
     lambda(   31)=  0.0131   gamma=  180.34 GHz
     lambda(   32)=  0.0131   gamma=  180.34 GHz
     lambda(   33)=  0.0264   gamma=  454.19 GHz

     Gaussian Broadening:   0.045 Ry, ngauss=   0
     DOS =  4.190074 states/spin/Ry/Unit Cell at Ef= 20.133690 eV
     double delta at Ef = 35.497131
     lambda(    1)=  0.0289   gamma=    5.41 GHz
     lambda(    2)=  0.0289   gamma=    5.41 GHz
     lambda(    3)=  0.0289   gamma=    5.64 GHz
     lambda(    4)=  0.1121   gamma=  228.25 GHz
     lambda(    5)=  0.0794   gamma=  166.34 GHz
     lambda(    6)=  0.1098   gamma=  307.38 GHz
     lambda(    7)=  0.0302   gamma=   88.44 GHz
     lambda(    8)=  0.0302   gamma=   88.44 GHz
     lambda(    9)=  0.1828   gamma=  805.43 GHz
     lambda(   10)=  0.0731   gamma=  331.37 GHz
     lambda(   11)=  0.0731   gamma=  331.37 GHz
     lambda(   12)=  0.0653   gamma=  307.67 GHz
     lambda(   13)=  0.0224   gamma=  125.93 GHz
     lambda(   14)=  0.1008   gamma=  604.09 GHz
     lambda(   15)=  0.0112   gamma=   74.77 GHz
     lambda(   16)=  0.0487   gamma=  332.93 GHz
     lambda(   17)=  0.0487   gamma=  332.93 GHz
     lambda(   18)=  0.0317   gamma=  246.38 GHz
     lambda(   19)=  0.0510   gamma=  404.58 GHz
     lambda(   20)=  0.0510   gamma=  404.58 GHz
     lambda(   21)=  0.0627   gamma=  515.48 GHz
     lambda(   22)=  0.0475   gamma=  445.46 GHz
     lambda(   23)=  0.0475   gamma=  445.46 GHz
     lambda(   24)=  0.0301   gamma=  284.60 GHz
     lambda(   25)=  0.0488   gamma=  504.41 GHz
     lambda(   26)=  0.0488   gamma=  504.41 GHz
     lambda(   27)=  0.0156   gamma=  161.92 GHz
     lambda(   28)=  0.0393   gamma=  411.53 GHz
     lambda(   29)=  0.0202   gamma=  247.23 GHz
     lambda(   30)=  0.0402   gamma=  561.54 GHz
     lambda(   31)=  0.0134   gamma=  193.24 GHz
     lambda(   32)=  0.0134   gamma=  193.24 GHz
     lambda(   33)=  0.0247   gamma=  447.15 GHz

     Gaussian Broadening:   0.050 Ry, ngauss=   0
     DOS =  4.333003 states/spin/Ry/Unit Cell at Ef= 20.134152 eV
     double delta at Ef = 36.677867
     lambda(    1)=  0.0302   gamma=    5.84 GHz
     lambda(    2)=  0.0302   gamma=    5.84 GHz
     lambda(    3)=  0.0308   gamma=    6.21 GHz
     lambda(    4)=  0.1254   gamma=  264.03 GHz
     lambda(    5)=  0.0859   gamma=  186.09 GHz
     lambda(    6)=  0.1087   gamma=  314.79 GHz
     lambda(    7)=  0.0316   gamma=   95.70 GHz
     lambda(    8)=  0.0316   gamma=   95.70 GHz
     lambda(    9)=  0.1820   gamma=  829.25 GHz
     lambda(   10)=  0.0733   gamma=  343.47 GHz
     lambda(   11)=  0.0733   gamma=  343.47 GHz
     lambda(   12)=  0.0675   gamma=  328.65 GHz
     lambda(   13)=  0.0231   gamma=  134.22 GHz
     lambda(   14)=  0.0989   gamma=  613.20 GHz
     lambda(   15)=  0.0109   gamma=   75.33 GHz
     lambda(   16)=  0.0490   gamma=  346.46 GHz
     lambda(   17)=  0.0490   gamma=  346.46 GHz
     lambda(   18)=  0.0333   gamma=  267.59 GHz
     lambda(   19)=  0.0499   gamma=  409.62 GHz
     lambda(   20)=  0.0499   gamma=  409.62 GHz
     lambda(   21)=  0.0624   gamma=  530.46 GHz
     lambda(   22)=  0.0454   gamma=  440.18 GHz
     lambda(   23)=  0.0454   gamma=  440.18 GHz
     lambda(   24)=  0.0314   gamma=  306.48 GHz
     lambda(   25)=  0.0471   gamma=  504.16 GHz
     lambda(   26)=  0.0471   gamma=  504.16 GHz
     lambda(   27)=  0.0167   gamma=  179.31 GHz
     lambda(   28)=  0.0384   gamma=  415.91 GHz
     lambda(   29)=  0.0223   gamma=  282.35 GHz
     lambda(   30)=  0.0401   gamma=  578.64 GHz
     lambda(   31)=  0.0138   gamma=  206.61 GHz
     lambda(   32)=  0.0138   gamma=  206.61 GHz
     lambda(   33)=  0.0237   gamma=  442.89 GHz

     init_run     :      1.92s CPU      2.14s WALL (       7 calls)
     electrons    :    552.46s CPU    623.34s WALL (       7 calls)

     Called by init_run:
     wfcinit      :      0.00s CPU      0.00s WALL (       7 calls)
     potinit      :      0.12s CPU      0.15s WALL (       7 calls)
     hinit0       :      0.96s CPU      1.01s WALL (       7 calls)

     Called by electrons:
     c_bands      :    552.36s CPU    623.25s WALL (       7 calls)
     v_of_rho     :      0.12s CPU      0.15s WALL (       8 calls)
     newd         :      0.21s CPU      0.35s WALL (       8 calls)

     Called by c_bands:
     init_us_2    :     80.42s CPU     91.18s WALL (  757802 calls)
     cegterg      :    503.09s CPU    565.17s WALL (    6048 calls)

     Called by *egterg:
     cdiaghg      :    121.47s CPU    127.33s WALL (   94014 calls)
     h_psi        :  20734.68s CPU  25050.42s WALL (10680891 calls)
     s_psi        :   3669.34s CPU   3896.76s WALL (21920780 calls)
     g_psi        :      2.31s CPU      2.37s WALL (   88578 calls)

     Called by h_psi:
     h_psi:calbec :   1754.41s CPU   2097.36s WALL (10680891 calls)
     vloc_psi     :  17253.57s CPU  20997.50s WALL (10680891 calls)
     add_vuspsi   :   1632.96s CPU   1853.09s WALL (10680891 calls)

     General routines
     calbec       :   4248.66s CPU   4760.74s WALL (23079898 calls)
     fft          :     29.07s CPU     34.54s WALL (   38651 calls)
     ffts         :     20.01s CPU     23.66s WALL (  112637 calls)
     fftw         :  19598.84s CPU  24058.39s WALL (******** calls)
     interpolate  :      3.34s CPU      4.19s WALL (    3604 calls)
     davcio       :     77.48s CPU     93.79s WALL ( 3434314 calls)

     Parallel routines
     fft_scatt_xy :   1496.65s CPU   1826.84s WALL (******** calls)
     fft_scatt_yz :   8065.59s CPU  10044.53s WALL (******** calls)

     PHONON       :      9h27m CPU     11h 7m WALL

     INITIALIZATION: 
     phq_setup    :      0.36s CPU      0.42s WALL (       8 calls)
     phq_init     :    229.74s CPU    267.24s WALL (       8 calls)

     phq_init     :    229.74s CPU    267.24s WALL (       8 calls)
     set_drhoc    :      3.97s CPU      3.97s WALL (      24 calls)
     init_vloc    :      0.10s CPU      0.10s WALL (       8 calls)
     init_us_1    :      0.83s CPU      0.89s WALL (       8 calls)
     newd         :      0.21s CPU      0.35s WALL (       8 calls)
     dvanqq       :      6.69s CPU      6.74s WALL (       8 calls)
     drho         :    202.08s CPU    238.68s WALL (       8 calls)

     DYNAMICAL MATRIX:
     dynmat0      :     12.74s CPU     13.23s WALL (       8 calls)
     phqscf       :  33252.74s CPU  39146.60s WALL (       8 calls)
     dynmatrix    :      0.17s CPU      0.17s WALL (       8 calls)

     phqscf       :  33252.74s CPU  39146.60s WALL (       8 calls)
     solve_linter :  33079.16s CPU  38958.59s WALL (     196 calls)
     drhodv       :    173.10s CPU    186.70s WALL (     196 calls)

     dynmat0      :     12.74s CPU     13.23s WALL (       8 calls)
     dynmat_us    :      8.91s CPU      9.37s WALL (       8 calls)
     d2ionq       :      0.98s CPU      0.98s WALL (       8 calls)
     dynmatcc     :      2.83s CPU      2.85s WALL (       8 calls)

     dynmat_us    :      8.91s CPU      9.37s WALL (       8 calls)
     addusdynmat  :      0.00s CPU      0.00s WALL (       8 calls)

     phqscf       :  33252.74s CPU  39146.60s WALL (       8 calls)
     solve_linter :  33079.16s CPU  38958.59s WALL (     196 calls)

     solve_linter :  33079.16s CPU  38958.59s WALL (     196 calls)
     dvqpsi_us    :    486.93s CPU    581.65s WALL (   92070 calls)
     ortho        :    650.55s CPU    691.32s WALL (  659060 calls)
     cgsolve      :  27612.91s CPU  32294.53s WALL (  659060 calls)
     incdrhoscf   :   1864.28s CPU   2360.12s WALL (  659060 calls)
     addusddens   :     69.66s CPU     70.12s WALL (    1498 calls)
     vpsifft      :   1423.41s CPU   1811.78s WALL (  566990 calls)
     dv_of_drho   :     16.00s CPU     18.94s WALL (    1656 calls)
     mix_pot      :      2.56s CPU      5.02s WALL (    1302 calls)
     ef_shift     :      0.23s CPU      0.39s WALL (      73 calls)
     localdos     :      2.66s CPU      3.15s WALL (      13 calls)
     psymdvscf    :     96.03s CPU     98.43s WALL (    1302 calls)
     newdq        :     69.02s CPU     69.51s WALL (    1302 calls)
     adddvscf     :    225.59s CPU    264.90s WALL (  659060 calls)
     drhodvus     :      0.69s CPU      1.34s WALL (     196 calls)

     dvqpsi_us    :    486.93s CPU    581.65s WALL (   92070 calls)
     dvqpsi_us_on :    146.53s CPU    154.60s WALL (   92070 calls)

     cgsolve      :  27612.91s CPU  32294.53s WALL (  659060 calls)
     ch_psi       :  27078.12s CPU  31729.29s WALL (10580829 calls)

     ch_psi       :  27078.12s CPU  31729.29s WALL (10580829 calls)
     h_psi        :  20734.68s CPU  25050.42s WALL (10680891 calls)
     last         :   4840.60s CPU   5085.06s WALL (10580829 calls)

     h_psi        :  20734.68s CPU  25050.42s WALL (10680891 calls)
     add_vuspsi   :   1632.96s CPU   1853.09s WALL (10680891 calls)

     incdrhoscf   :   1864.28s CPU   2360.12s WALL (  659060 calls)
     addusdbec    :    265.83s CPU    315.16s WALL (  751130 calls)

     drhodvus     :      0.69s CPU      1.34s WALL (     196 calls)

      Electron-phonon coupling
     elphel       :    415.91s CPU    513.81s WALL (     196 calls)

      General routines
     calbec       :   4248.66s CPU   4760.74s WALL (23079898 calls)
     fft          :     29.07s CPU     34.54s WALL (   38651 calls)
     ffts         :     20.01s CPU     23.66s WALL (  112637 calls)
     fftw         :  19598.84s CPU  24058.39s WALL (******** calls)
     davcio       :     77.48s CPU     93.79s WALL ( 3434314 calls)
     write_rec    :      1.67s CPU      8.91s WALL (    1498 calls)


     PHONON       :      9h27m CPU     11h 7m WALL


   This run was terminated on:   9:47:42  28May2026            

=------------------------------------------------------------------------------=
   JOB DONE.
=------------------------------------------------------------------------------=
Note: The following floating-point exceptions are signalling: IEEE_UNDERFLOW_FLAG IEEE_DENORMAL
Note: The following floating-point exceptions are signalling: IEEE_UNDERFLOW_FLAG IEEE_DENORMAL
Note: The following floating-point exceptions are signalling: IEEE_UNDERFLOW_FLAG IEEE_DENORMAL
Note: The following floating-point exceptions are signalling: IEEE_UNDERFLOW_FLAG IEEE_DENORMAL
Note: The following floating-point exceptions are signalling: IEEE_UNDERFLOW_FLAG IEEE_DENORMAL
Note: The following floating-point exceptions are signalling: IEEE_UNDERFLOW_FLAG IEEE_DENORMAL
