
     Program PWSCF v.6.7MaX starts on 27May2026 at 22:39:43 

     This program is part of the open-source Quantum ESPRESSO suite
     for quantum simulation of materials; please cite
         "P. Giannozzi et al., J. Phys.:Condens. Matter 21 395502 (2009);
         "P. Giannozzi et al., J. Phys.:Condens. Matter 29 465901 (2017);
          URL http://www.quantum-espresso.org", 
     in publications or presentations arising from this work. More details at
     http://www.quantum-espresso.org/quote

     Parallel version (MPI), running on     6 processors

     MPI processes distributed on     1 nodes
     R & G space division:  proc/nbgrp/npool/nimage =       6
     Reading input from scf.in

     Current dimensions of program PWSCF are:
     Max number of different atomic species (ntypx) = 10
     Max number of k-points (npk) =  40000
     Max angular momentum in pseudopotentials (lmaxx) =  3
     file Y.UPF: wavefunction(s)  4S renormalized

     Subspace diagonalization in iterative solution of the eigenvalue problem:
     one sub-group per band group will be used
     scalapack distributed-memory algorithm (size of sub-group:  2*  2 procs)

     Message from routine setup:
     using ibrav=0 with symmetry is DISCOURAGED, use correct ibrav instead

     Parallelization info
     --------------------
     sticks:   dense  smooth     PW     G-vecs:    dense   smooth      PW
     Min         361     143     42                11089     2810     456
     Max         363     144     43                11090     2813     460
     Sum        2173     859    253                66539    16865    2741



     bravais-lattice index     =            0
     lattice parameter (alat)  =       6.2713  a.u.
     unit-cell volume          =     174.4011 (a.u.)^3
     number of atoms/cell      =           11
     number of atomic types    =            2
     number of electrons       =        21.00
     number of Kohn-Sham states=           15
     kinetic-energy cutoff     =      80.0000  Ry
     charge density cutoff     =     800.0000  Ry
     scf convergence threshold =      1.0E-12
     mixing beta               =       0.4000
     number of iterations used =            8  plain     mixing
     Exchange-correlation= PBE
                           (   1   4   3   4   0   0   0)

     celldm(1)=   6.271259  celldm(2)=   0.000000  celldm(3)=   0.000000
     celldm(4)=   0.000000  celldm(5)=   0.000000  celldm(6)=   0.000000

     crystal axes: (cart. coord. in units of alat)
               a(1) = (  -0.707107   0.000000   0.707107 )  
               a(2) = (  -0.000000   0.707107   0.707107 )  
               a(3) = (  -0.707107   0.707107   0.000000 )  

     reciprocal axes: (cart. coord. in units 2 pi/alat)
               b(1) = ( -0.707107 -0.707107  0.707107 )  
               b(2) = (  0.707107  0.707107  0.707107 )  
               b(3) = ( -0.707107  0.707107 -0.707107 )  


     PseudoPot. # 1 for Y  read from file:
     ../pseudo/Y.UPF
     MD5 check sum: 5fe32e6a006803c2ec2edff47948a3c8
     Pseudo is Ultrasoft + core correction, Zval = 11.0
     Generated using &quot;atomic&quot; code by A. Dal Corso  v.6.2.2
     Using radial grid of 1223 points,  6 beta functions with: 
                l(1) =   0
                l(2) =   0
                l(3) =   1
                l(4) =   1
                l(5) =   2
                l(6) =   2
     Q(r) pseudized with 0 coefficients 


     PseudoPot. # 2 for H  read from file:
     ../pseudo/H.UPF
     MD5 check sum: 3f4114867bd07edc7f1424d066fc1888
     Pseudo is Ultrasoft, Zval =  1.0
     Generated using &quot;atomic&quot; code by A. Dal Corso  v.6.3MaX
     Using radial grid of  929 points,  2 beta functions with: 
                l(1) =   0
                l(2) =   0
     Q(r) pseudized with 0 coefficients 


     atomic species   valence    mass     pseudopotential
        Y             11.00    88.90600     Y ( 1.00)
        H              1.00     1.00800     H ( 1.00)

     48 Sym. Ops., with inversion, found



   Cartesian axes

     site n.     atom                  positions (alat units)
         1           Y   tau(   1) = (   0.0000000   0.0000000   0.0000000  )
         2           H   tau(   2) = (  -1.0606602   1.0606602   1.0606602  )
         3           H   tau(   3) = (  -0.3535534   0.3535534   0.3535534  )
         4           H   tau(   4) = (  -0.8783564   0.5358572   0.5358572  )
         5           H   tau(   5) = (  -0.5358572   0.8783564   0.8783564  )
         6           H   tau(   6) = (  -0.5358572   0.5358572   0.5358572  )
         7           H   tau(   7) = (  -0.8783564   0.8783564   0.8783564  )
         8           H   tau(   8) = (  -0.5358572   0.8783564   0.5358572  )
         9           H   tau(   9) = (  -0.8783564   0.5358572   0.8783564  )
        10           H   tau(  10) = (  -0.8783564   0.8783564   0.5358572  )
        11           H   tau(  11) = (  -0.5358572   0.5358572   0.8783564  )

     number of k points=    72  Methfessel-Paxton smearing, width (Ry)=  0.0200
                       cart. coord. in units 2pi/alat
        k(    1) = (   0.0000000   0.0000000   0.0000000), wk =   0.0011574
        k(    2) = (  -0.0589256   0.0589256  -0.0589256), wk =   0.0092593
        k(    3) = (  -0.1178511   0.1178511  -0.1178511), wk =   0.0092593
        k(    4) = (  -0.1767767   0.1767767  -0.1767767), wk =   0.0092593
        k(    5) = (  -0.2357023   0.2357023  -0.2357023), wk =   0.0092593
        k(    6) = (  -0.2946278   0.2946278  -0.2946278), wk =   0.0092593
        k(    7) = (   0.3535534  -0.3535534   0.3535534), wk =   0.0046296
        k(    8) = (   0.0000000   0.1178511   0.0000000), wk =   0.0069444
        k(    9) = (  -0.0589256   0.1767767  -0.0589256), wk =   0.0277778
        k(   10) = (  -0.1178511   0.2357023  -0.1178511), wk =   0.0277778
        k(   11) = (  -0.1767767   0.2946278  -0.1767767), wk =   0.0277778
        k(   12) = (  -0.2357023   0.3535534  -0.2357023), wk =   0.0277778
        k(   13) = (   0.4124790  -0.2946278   0.4124790), wk =   0.0277778
        k(   14) = (   0.3535534  -0.2357023   0.3535534), wk =   0.0277778
        k(   15) = (   0.2946278  -0.1767767   0.2946278), wk =   0.0277778
        k(   16) = (   0.2357023  -0.1178511   0.2357023), wk =   0.0277778
        k(   17) = (   0.1767767  -0.0589256   0.1767767), wk =   0.0277778
        k(   18) = (   0.1178511  -0.0000000   0.1178511), wk =   0.0138889
        k(   19) = (   0.0000000   0.2357023   0.0000000), wk =   0.0069444
        k(   20) = (  -0.0589256   0.2946278  -0.0589256), wk =   0.0277778
        k(   21) = (  -0.1178511   0.3535534  -0.1178511), wk =   0.0277778
        k(   22) = (  -0.1767767   0.4124790  -0.1767767), wk =   0.0277778
        k(   23) = (   0.4714045  -0.2357023   0.4714045), wk =   0.0277778
        k(   24) = (   0.4124790  -0.1767767   0.4124790), wk =   0.0277778
        k(   25) = (   0.3535534  -0.1178511   0.3535534), wk =   0.0277778
        k(   26) = (   0.2946278  -0.0589256   0.2946278), wk =   0.0277778
        k(   27) = (   0.2357023   0.0000000   0.2357023), wk =   0.0138889
        k(   28) = (   0.0000000   0.3535534   0.0000000), wk =   0.0069444
        k(   29) = (  -0.0589256   0.4124790  -0.0589256), wk =   0.0277778
        k(   30) = (  -0.1178511   0.4714045  -0.1178511), wk =   0.0277778
        k(   31) = (   0.5303301  -0.1767767   0.5303301), wk =   0.0277778
        k(   32) = (   0.4714045  -0.1178511   0.4714045), wk =   0.0277778
        k(   33) = (   0.4124790  -0.0589256   0.4124790), wk =   0.0277778
        k(   34) = (   0.3535534   0.0000000   0.3535534), wk =   0.0138889
        k(   35) = (   0.0000000   0.4714045   0.0000000), wk =   0.0069444
        k(   36) = (  -0.0589256   0.5303301  -0.0589256), wk =   0.0277778
        k(   37) = (   0.5892557  -0.1178511   0.5892557), wk =   0.0277778
        k(   38) = (   0.5303301  -0.0589256   0.5303301), wk =   0.0277778
        k(   39) = (   0.4714045  -0.0000000   0.4714045), wk =   0.0138889
        k(   40) = (   0.0000000   0.5892557   0.0000000), wk =   0.0069444
        k(   41) = (   0.6481812  -0.0589256   0.6481812), wk =   0.0277778
        k(   42) = (   0.5892557   0.0000000   0.5892557), wk =   0.0138889
        k(   43) = (   0.0000000  -0.7071068   0.0000000), wk =   0.0034722
        k(   44) = (  -0.1178511   0.2357023  -0.0000000), wk =   0.0277778
        k(   45) = (  -0.1767767   0.2946278  -0.0589256), wk =   0.0555556
        k(   46) = (  -0.2357023   0.3535534  -0.1178511), wk =   0.0555556
        k(   47) = (   0.4124790  -0.2946278   0.5303301), wk =   0.0555556
        k(   48) = (   0.3535534  -0.2357023   0.4714045), wk =   0.0277778
        k(   49) = (  -0.1178511   0.3535534   0.0000000), wk =   0.0277778
        k(   50) = (  -0.1767767   0.4124790  -0.0589256), wk =   0.0555556
        k(   51) = (   0.4714045  -0.2357023   0.5892557), wk =   0.0555556
        k(   52) = (   0.4124790  -0.1767767   0.5303301), wk =   0.0555556
        k(   53) = (   0.3535534  -0.1178511   0.4714045), wk =   0.0555556
        k(   54) = (   0.2946278  -0.0589256   0.4124790), wk =   0.0555556
        k(   55) = (   0.2357023   0.0000000   0.3535534), wk =   0.0277778
        k(   56) = (  -0.1178511   0.4714045   0.0000000), wk =   0.0277778
        k(   57) = (   0.5303301  -0.1767767   0.6481812), wk =   0.0555556
        k(   58) = (   0.4714045  -0.1178511   0.5892557), wk =   0.0555556
        k(   59) = (   0.4124790  -0.0589256   0.5303301), wk =   0.0555556
        k(   60) = (   0.3535534  -0.0000000   0.4714045), wk =   0.0277778
        k(   61) = (   0.5892557  -0.1178511   0.7071068), wk =   0.0277778
        k(   62) = (   0.5303301  -0.0589256   0.6481812), wk =   0.0555556
        k(   63) = (   0.4714045  -0.0000000   0.5892557), wk =   0.0277778
        k(   64) = (  -0.1178511  -0.7071068   0.0000000), wk =   0.0138889
        k(   65) = (   0.4714045  -0.2357023   0.7071068), wk =   0.0277778
        k(   66) = (   0.4124790  -0.1767767   0.6481812), wk =   0.0555556
        k(   67) = (   0.3535534  -0.1178511   0.5892557), wk =   0.0277778
        k(   68) = (   0.4714045  -0.1178511   0.7071068), wk =   0.0277778
        k(   69) = (   0.4124790  -0.0589256   0.6481812), wk =   0.0555556
        k(   70) = (   0.3535534   0.0000000   0.5892557), wk =   0.0277778
        k(   71) = (  -0.2357023  -0.7071068   0.0000000), wk =   0.0138889
        k(   72) = (  -0.3535534  -0.7071068   0.0000000), wk =   0.0069444

     Dense  grid:    66539 G-vectors     FFT dimensions: (  60,  60,  60)

     Smooth grid:    16865 G-vectors     FFT dimensions: (  36,  36,  36)

     Estimated max dynamical RAM per process >      54.30 MB

     Estimated total dynamical RAM >     325.80 MB

     Initial potential from superposition of free atoms

     starting charge   20.99582, renormalised to   21.00000
     Starting wfcs are   23 randomized atomic wfcs

     total cpu time spent up to now is        1.1 secs

     Self-consistent Calculation

     iteration #  1     ecut=    80.00 Ry     beta= 0.40
     Davidson diagonalization with overlap
     ethr =  1.00E-02,  avg # of iterations =  3.0

     total cpu time spent up to now is        2.8 secs

     total energy              =     -93.84705178 Ry
     estimated scf accuracy    <       0.25924918 Ry

     iteration #  2     ecut=    80.00 Ry     beta= 0.40
     Davidson diagonalization with overlap
     ethr =  1.23E-03,  avg # of iterations =  1.3

     total cpu time spent up to now is        4.0 secs

     total energy              =     -93.85273999 Ry
     estimated scf accuracy    <       0.03777689 Ry

     iteration #  3     ecut=    80.00 Ry     beta= 0.40
     Davidson diagonalization with overlap
     ethr =  1.80E-04,  avg # of iterations =  3.5

     total cpu time spent up to now is        5.7 secs

     total energy              =     -93.85896382 Ry
     estimated scf accuracy    <       0.00293885 Ry

     iteration #  4     ecut=    80.00 Ry     beta= 0.40
     Davidson diagonalization with overlap
     ethr =  1.40E-05,  avg # of iterations =  3.3

     total cpu time spent up to now is        7.4 secs

     total energy              =     -93.85923930 Ry
     estimated scf accuracy    <       0.00067296 Ry

     iteration #  5     ecut=    80.00 Ry     beta= 0.40
     Davidson diagonalization with overlap
     ethr =  3.20E-06,  avg # of iterations =  3.2

     total cpu time spent up to now is        9.0 secs

     total energy              =     -93.85937712 Ry
     estimated scf accuracy    <       0.00000881 Ry

     iteration #  6     ecut=    80.00 Ry     beta= 0.40
     Davidson diagonalization with overlap
     ethr =  4.19E-08,  avg # of iterations =  2.1

     total cpu time spent up to now is       10.5 secs

     total energy              =     -93.85937896 Ry
     estimated scf accuracy    <       0.00000057 Ry

     iteration #  7     ecut=    80.00 Ry     beta= 0.40
     Davidson diagonalization with overlap
     ethr =  2.73E-09,  avg # of iterations =  2.4

     total cpu time spent up to now is       12.0 secs

     total energy              =     -93.85937908 Ry
     estimated scf accuracy    <       0.00000004 Ry

     iteration #  8     ecut=    80.00 Ry     beta= 0.40
     Davidson diagonalization with overlap
     ethr =  1.85E-10,  avg # of iterations =  2.4

     total cpu time spent up to now is       13.6 secs

     total energy              =     -93.85937908 Ry
     estimated scf accuracy    <          8.5E-09 Ry

     iteration #  9     ecut=    80.00 Ry     beta= 0.40
     Davidson diagonalization with overlap
     ethr =  4.04E-11,  avg # of iterations =  2.0

     total cpu time spent up to now is       14.9 secs

     total energy              =     -93.85937908 Ry
     estimated scf accuracy    <          1.1E-09 Ry

     iteration # 10     ecut=    80.00 Ry     beta= 0.40
     Davidson diagonalization with overlap
     ethr =  5.04E-12,  avg # of iterations =  2.6

     total cpu time spent up to now is       16.6 secs

     total energy              =     -93.85937908 Ry
     estimated scf accuracy    <          7.7E-10 Ry

     iteration # 11     ecut=    80.00 Ry     beta= 0.40
     Davidson diagonalization with overlap
     ethr =  3.66E-12,  avg # of iterations =  2.0

     total cpu time spent up to now is       18.0 secs

     total energy              =     -93.85937908 Ry
     estimated scf accuracy    <          2.1E-11 Ry

     iteration # 12     ecut=    80.00 Ry     beta= 0.40
     Davidson diagonalization with overlap
     ethr =  1.00E-13,  avg # of iterations =  2.3

     total cpu time spent up to now is       19.6 secs

     End of self-consistent calculation

          k = 0.0000 0.0000 0.0000 (  2085 PWs)   bands (ev):

   -23.1444  -2.8061  -2.8061  -2.8061  -1.1491  10.5239  13.7429  13.7429
    13.7429  14.5518  14.5518  14.5518  18.5657  20.0493  20.0493

          k =-0.0589 0.0589-0.0589 (  2097 PWs)   bands (ev):

   -23.1172  -3.4563  -2.8226  -2.8226  -0.4336   9.7680  13.2151  13.4271
    13.4271  14.6795  14.6795  15.4932  19.5735  20.7202  20.7202

          k =-0.1179 0.1179-0.1179 (  2100 PWs)   bands (ev):

   -23.0418  -4.4556  -2.8668  -2.8668   0.7411   8.4944  12.1961  12.6247
    12.6247  15.2693  15.2693  17.5034  21.7898  22.3628  22.3628

          k =-0.1768 0.1768-0.1768 (  2100 PWs)   bands (ev):

   -22.9364  -5.3580  -2.9253  -2.9253   1.8630   7.3853  11.3924  11.7705
    11.7705  16.2979  16.2979  19.6517  24.3728  24.5052  24.5052

          k =-0.2357 0.2357-0.2357 (  2102 PWs)   bands (ev):

   -22.8278  -6.0635  -2.9816  -2.9816   2.7310   6.5965  10.9996  11.0852
    11.0852  17.6917  17.6917  21.0438  26.1728  26.5419  26.5419

          k =-0.2946 0.2946-0.2946 (  2093 PWs)   bands (ev):

   -22.7462  -6.5132  -3.0215  -3.0215   3.2273   6.1534  10.6520  10.6520
    10.9637  19.3457  19.3457  20.9791  24.2891  24.2891  27.8169

          k = 0.3536-0.3536 0.3536 (  2120 PWs)   bands (ev):

   -22.7159  -6.6678  -3.0359  -3.0359   3.3756   6.0165  10.5044  10.5044
    11.0140  20.5711  20.5711  20.7084  22.8201  22.8201  29.0562

          k = 0.0000 0.1179 0.0000 (  2093 PWs)   bands (ev):

   -23.1081  -3.5345  -2.8767  -2.8767  -0.2371   9.6038  12.7516  13.1435
    13.1435  15.0104  15.6774  15.6774  19.2149  20.1909  21.8319

          k =-0.0589 0.1768-0.0589 (  2098 PWs)   bands (ev):

   -23.0490  -4.2742  -2.9531  -2.9183   0.6875   8.6610  11.2175  12.7443
    13.3614  15.1175  16.3797  17.3300  20.4765  21.0168  23.6753

          k =-0.1179 0.2357-0.1179 (  2095 PWs)   bands (ev):

   -22.9537  -5.1128  -3.0298  -2.9800   1.7652   7.6269  10.0630  12.1461
    13.2854  15.3915  17.2037  19.3484  22.8097  22.9233  25.7038

          k =-0.1768 0.2946-0.1768 (  2105 PWs)   bands (ev):

   -22.8461  -5.8273  -3.0863  -3.0751   2.7164   6.7527   9.4269  11.5040
    12.8765  16.3863  18.4129  21.0232  25.0364  25.4776  26.4177

          k =-0.2357 0.3536-0.2357 (  2104 PWs)   bands (ev):

   -22.7553  -6.3296  -3.1788  -3.1084   3.3759   6.1220   9.2448  10.9872
    12.6185  17.6185  19.9108  21.4419  24.0718  26.2280  27.4081

          k = 0.4125-0.2946 0.4125 (  2102 PWs)   bands (ev):

   -22.7076  -6.5681  -3.2626  -3.0916   3.6892   5.8052   9.2619  10.6912
    12.5917  18.5630  20.6634  21.7615  22.9716  24.3519  28.8098

          k = 0.3536-0.2357 0.3536 (  2100 PWs)   bands (ev):

   -22.7176  -6.5186  -3.3037  -3.0405   3.6449   5.8788   9.2467  10.6638
    12.6995  18.9891  19.0991  22.5202  23.2420  24.6755  28.0566

          k = 0.2946-0.1768 0.2946 (  2100 PWs)   bands (ev):

   -22.7823  -6.1876  -3.2898  -2.9679   3.2281   6.3292   9.2585  10.9266
    12.9464  17.3685  18.6861  21.7148  24.8580  26.3493  26.9783

          k = 0.2357-0.1179 0.2357 (  2098 PWs)   bands (ev):

   -22.8821  -5.6119  -3.2201  -2.8918   2.4495   7.0658   9.5760  11.4823
    13.3810  15.9066  17.5530  20.7354  23.8525  25.3298  26.4957

          k = 0.1768-0.0589 0.1768 (  2095 PWs)   bands (ev):

   -22.9886  -4.8576  -3.1048  -2.8323   1.4120   8.0009  10.3867  12.3098
    13.8800  14.7890  16.2948  19.0724  21.3066  23.8028  24.2234

          k = 0.1179-0.0000 0.1179 (  2099 PWs)   bands (ev):

   -23.0740  -4.0448  -2.9580  -2.8065   0.3257   9.0113  11.6806  13.3002
    14.0161  14.0922  15.2480  17.1970  19.8703  21.7591  22.2121

          k = 0.0000 0.2357 0.0000 (  2097 PWs)   bands (ev):

   -23.0084  -4.5063  -3.0657  -3.0657   1.2058   8.2026  10.1634  12.7444
    12.7444  17.4488  17.6105  17.6105  20.0126  20.6043  25.4773

          k =-0.0589 0.2946-0.0589 (  2095 PWs)   bands (ev):

   -22.9297  -5.0447  -3.1781  -3.1732   2.0073   7.5021   8.9937  12.5289
    12.9666  17.3194  18.5211  19.6582  21.6058  21.6713  27.1092

          k =-0.1179 0.3536-0.1179 (  2096 PWs)   bands (ev):

   -22.8324  -5.6092  -3.3443  -3.2478   2.8522   6.8032   8.2343  12.0976
    13.3607  17.1913  19.4913  21.3375  23.5375  24.5826  26.1799

          k =-0.1768 0.4125-0.1768 (  2109 PWs)   bands (ev):

   -22.7422  -6.0496  -3.5616  -3.2715   3.5817   6.0874   8.1118  11.6072
    13.6696  17.3630  20.7522  22.0698  24.0034  25.8363  26.0660

          k = 0.4714-0.2357 0.4714 (  2108 PWs)   bands (ev):

   -22.6847  -6.2965  -3.7683  -3.2393   4.1806   5.4727   8.2724  11.2122
    14.0181  17.4342  20.9477  22.3638  23.3836  26.9509  28.0556

          k = 0.4125-0.1768 0.4125 (  2103 PWs)   bands (ev):

   -22.6768  -6.3225  -3.8982  -3.1588   4.5423   5.2195   8.2467  11.0049
    14.4956  17.4875  19.1992  23.3221  25.1830  25.1881  27.5297

          k = 0.3536-0.1179 0.3536 (  2110 PWs)   bands (ev):

   -22.7211  -6.1367  -3.9013  -3.0498   4.1337   5.8682   7.9795  11.0318
    14.9342  17.4814  17.8583  23.3806  24.2317  26.3189  27.4228

          k = 0.2946-0.0589 0.2946 (  2102 PWs)   bands (ev):

   -22.8042  -5.7831  -3.7517  -2.9401   3.3731   6.8316   7.8950  11.3039
    15.2229  16.0867  17.7572  22.2571  23.9419  24.7651  27.8229

          k = 0.2357 0.0000 0.2357 (  2109 PWs)   bands (ev):

   -22.9021  -5.3306  -3.4605  -2.8597   2.3942   7.5168   8.7349  11.7822
    15.0356  15.1315  16.9271  21.2323  21.8457  24.9638  26.3725

          k = 0.0000 0.3536 0.0000 (  2085 PWs)   bands (ev):

   -22.8702  -5.2500  -3.3148  -3.3148   2.3803   7.0106   8.2625  12.7589
    12.7589  19.9994  19.9994  20.3492  21.2002  21.2492  27.3259

          k =-0.0589 0.4125-0.0589 (  2097 PWs)   bands (ev):

   -22.7900  -5.5770  -3.4950  -3.4185   2.8000   6.5663   7.7120  12.6948
    13.0374  19.7871  20.8652  22.0725  22.5426  23.6667  25.8534

          k =-0.1179 0.4714-0.1179 (  2109 PWs)   bands (ev):

   -22.7102  -5.8448  -3.8190  -3.4602   3.2368   6.2361   7.5333  12.3729
    13.4388  19.3624  21.7649  22.9632  23.9039  24.7600  25.4860

          k = 0.5303-0.1768 0.5303 (  2113 PWs)   bands (ev):

   -22.6528  -5.9700  -4.2174  -3.4309   3.7024   5.9044   7.7126  11.9574
    13.8293  18.7643  21.4271  23.1747  23.8717  26.7028  27.3537

          k = 0.4714-0.1179 0.4714 (  2111 PWs)   bands (ev):

   -22.6344  -5.9550  -4.5346  -3.3370   4.2619   5.5960   7.7646  11.5891
    14.4513  18.1256  19.6634  23.9494  25.6571  26.8165  27.4866

          k = 0.4125-0.0589 0.4125 (  2113 PWs)   bands (ev):

   -22.6603  -5.8912  -4.5866  -3.2002   4.7492   5.4991   7.4271  11.3446
    15.5619  17.5850  18.0567  24.0583  25.1385  26.5749  27.7620

          k = 0.3536 0.0000 0.3536 (  2099 PWs)   bands (ev):

   -22.7229  -5.8559  -4.2811  -3.0545   4.2968   6.3024   7.1141  11.2512
    16.7195  16.8273  16.9084  23.2320  23.7582  27.0361  27.4261

          k = 0.0000 0.4714 0.0000 (  2092 PWs)   bands (ev):

   -22.7298  -5.7231  -3.5542  -3.5542   2.6239   6.1357   7.7175  13.0699
    13.0699  22.0306  22.6575  22.6575  22.8397  23.5583  25.2045

          k =-0.0589 0.5303-0.0589 (  2108 PWs)   bands (ev):

   -22.6675  -5.8599  -3.7838  -3.6237   2.6038   5.9289   7.7922  13.0733
    13.3101  22.0219  22.5312  23.6076  24.1303  24.7700  25.0007

          k = 0.5893-0.1179 0.5893 (  2108 PWs)   bands (ev):

   -22.6203  -5.8504  -4.2647  -3.6123   2.8628   5.9770   7.8535  12.7588
    13.4487  20.9839  22.0535  23.8682  24.2013  26.2431  27.0529

          k = 0.5303-0.0589 0.5303 (  2119 PWs)   bands (ev):

   -22.6015  -5.6414  -4.8620  -3.5223   3.3659   6.0817   7.8064  12.2870
    13.6160  20.0252  20.4782  24.9188  25.4583  26.7190  27.5019

          k = 0.4714-0.0000 0.4714 (  2121 PWs)   bands (ev):

   -22.6163  -5.4876  -5.1583  -3.3731   4.0636   5.9835   7.5178  11.7875
    14.3364  18.9803  19.0819  24.8718  26.0541  26.4318  27.2303

          k = 0.0000 0.5893 0.0000 (  2112 PWs)   bands (ev):

   -22.6255  -5.9606  -3.7238  -3.7238   2.1607   5.6048   8.1559  13.4631
    13.4631  22.7452  23.4284  23.4284  24.8909  25.6261  25.6262

          k = 0.6482-0.0589 0.6482 (  2109 PWs)   bands (ev):

   -22.5960  -5.9600  -3.9622  -3.7393   2.1774   5.6043   8.2839  13.3987
    13.5186  22.5540  22.6578  23.3230  25.4481  26.3282  26.7026

          k = 0.5893 0.0000 0.5893 (  2111 PWs)   bands (ev):

   -22.5872  -5.7977  -4.4709  -3.6672   2.6315   5.8798   8.1502  12.9475
    13.3980  21.5159  21.5541  24.3594  25.6555  26.7526  27.2959

          k = 0.0000-0.7071 0.0000 (  2100 PWs)   bands (ev):

   -22.5870  -6.0280  -3.7847  -3.7847   1.9022   5.4271   8.4461  13.6486
    13.6486  22.9245  22.9245  23.0548  25.8064  26.7271  27.0251

          k =-0.1179 0.2357-0.0000 (  2091 PWs)   bands (ev):

   -22.9799  -4.8127  -3.1746  -2.9300   1.5327   7.9740   9.8017  12.4836
    13.3995  16.0445  16.7062  19.4874  20.5501  22.5434  25.5841

          k =-0.1768 0.2946-0.0589 (  2097 PWs)   bands (ev):

   -22.8836  -5.4226  -3.3913  -2.9802   2.5121   7.2440   8.6870  11.8876
    13.8547  16.2503  17.8258  20.9895  22.6249  24.5866  26.0980

          k =-0.2357 0.3536-0.1179 (  2108 PWs)   bands (ev):

   -22.7847  -5.9476  -3.5511  -3.0656   3.3805   6.4375   8.2889  11.3534
    14.0360  16.7574  18.9615  22.1484  24.5068  25.2669  26.4491

          k = 0.4125-0.2946 0.5303 (  2106 PWs)   bands (ev):

   -22.7106  -6.2970  -3.6450  -3.1442   4.0106   5.7121   8.3899  11.0056
    14.0245  17.3938  19.6276  23.0981  23.4944  26.2959  27.3206

          k = 0.3536-0.2357 0.4714 (  2100 PWs)   bands (ev):

   -22.6831  -6.4192  -3.6752  -3.1761   4.2995   5.3628   8.5050  10.8859
    14.0211  17.5218  20.1286  22.4707  24.4699  25.0423  28.7429

          k =-0.1179 0.3536 0.0000 (  2095 PWs)   bands (ev):

   -22.8501  -5.4121  -3.4582  -3.2051   2.6672   7.0253   8.0355  12.3404
    13.2507  18.5727  18.6788  21.4992  22.1790  23.5758  25.9326

          k =-0.1768 0.4125-0.0589 (  2101 PWs)   bands (ev):

   -22.7615  -5.7602  -3.7373  -3.2964   3.3474   6.5684   7.4822  11.9452
    13.8175  18.3482  19.8591  22.5093  24.1177  24.7679  26.0226

          k = 0.4714-0.2357 0.5893 (  2109 PWs)   bands (ev):

   -22.6879  -6.0023  -4.0029  -3.3743   3.9374   5.9401   7.6283  11.5452
    14.3581  17.8477  20.5859  23.5837  23.7143  25.3523  27.4549

          k = 0.4125-0.1768 0.5303 (  2109 PWs)   bands (ev):

   -22.6502  -6.1022  -4.2107  -3.3749   4.4772   5.3892   7.8706  11.2607
    14.9332  17.0986  20.5877  22.9363  25.1254  26.9272  27.7596

          k = 0.3536-0.1179 0.4714 (  2110 PWs)   bands (ev):

   -22.6597  -6.0637  -4.2816  -3.2949   4.7154   5.3178   7.7274  11.1772
    15.5848  16.6224  19.5318  23.7240  25.3649  25.9956  27.4698

          k = 0.2946-0.0589 0.4125 (  2105 PWs)   bands (ev):

   -22.7135  -5.9194  -4.1526  -3.1683   4.1950   6.1416   7.3309  11.2883
    15.3850  17.1409  18.5677  23.6452  23.6859  26.1962  27.3092

          k = 0.2357 0.0000 0.3536 (  2102 PWs)   bands (ev):

   -22.7958  -5.7008  -3.8260  -3.0460   3.4108   7.0659   7.3385  11.5467
    14.6464  17.4370  17.8188  22.2952  23.9313  24.5048  27.3175

          k =-0.1179 0.4714 0.0000 (  2108 PWs)   bands (ev):

   -22.7187  -5.7600  -3.7288  -3.5289   2.9749   6.3010   7.4808  12.5332
    13.4653  20.5758  21.4539  22.5386  24.3057  24.8524  25.3635

          k = 0.5303-0.1768 0.6482 (  2108 PWs)   bands (ev):

   -22.6554  -5.8395  -4.0975  -3.6277   3.2560   6.2223   7.4498  12.1114
    13.9877  19.7448  22.1210  23.7055  23.9542  24.6943  27.1348

          k = 0.4714-0.1179 0.5893 (  2116 PWs)   bands (ev):

   -22.6176  -5.7722  -4.5676  -3.6161   3.6485   6.1347   7.6033  11.6541
    14.4022  18.6269  21.7220  23.6477  25.1252  26.4443  27.5844

          k = 0.4125-0.0589 0.5303 (  2116 PWs)   bands (ev):

   -22.6163  -5.6475  -4.8922  -3.5056   4.1375   6.0195   7.5018  11.3842
    14.9953  17.6019  20.5572  24.4895  25.6824  26.5637  27.1907

          k = 0.3536-0.0000 0.4714 (  2117 PWs)   bands (ev):

   -22.6516  -5.7565  -4.6930  -3.3371   4.5273   5.9499   7.1459  11.3068
    16.0839  16.5452  19.4392  23.9485  25.0854  26.0126  28.5139

          k = 0.5893-0.1179 0.7071 (  2117 PWs)   bands (ev):

   -22.6216  -5.8912  -3.9193  -3.8055   2.5548   5.8516   7.9596  12.7382
    13.8087  21.4383  23.3298  23.5592  24.6142  24.7625  27.1432

          k = 0.5303-0.0589 0.6482 (  2117 PWs)   bands (ev):

   -22.5939  -5.7630  -4.3933  -3.8238   2.8694   6.0446   7.9692  12.1116
    14.1681  20.1729  22.8456  24.1715  25.0074  26.3283  27.2090

          k = 0.4714-0.0000 0.5893 (  2120 PWs)   bands (ev):

   -22.5920  -5.4690  -4.9929  -3.7016   3.4301   6.2567   7.7552  11.6113
    14.3993  18.9315  21.8057  25.2589  25.3840  26.1447  27.6032

          k =-0.1179-0.7071 0.0000 (  2114 PWs)   bands (ev):

   -22.5858  -5.9119  -3.9875  -3.9199   2.3126   5.6996   8.2878  12.7983
    13.9789  21.4690  23.0795  23.6035  26.0831  26.4858  26.4954

          k = 0.4714-0.2357 0.7071 (  2113 PWs)   bands (ev):

   -22.6895  -5.8134  -4.1666  -3.4410   3.8247   6.6984   6.7860  11.6043
    14.6430  18.3752  20.2486  23.4199  23.8932  25.5220  27.3172

          k = 0.4125-0.1768 0.6482 (  2112 PWs)   bands (ev):

   -22.6360  -5.7771  -4.5151  -3.6033   4.1174   6.2491   7.1958  11.2451
    15.4622  17.2138  21.1668  24.0313  24.8005  25.4237  28.0306

          k = 0.3536-0.1179 0.5893 (  2108 PWs)   bands (ev):

   -22.6163  -5.7382  -4.6612  -3.6720   4.2111   6.0612   7.4829  11.0592
    16.2095  16.2699  21.7252  23.3649  25.9444  26.8326  27.2382

          k = 0.4714-0.1179 0.7071 (  2111 PWs)   bands (ev):

   -22.6118  -5.6983  -4.4022  -3.9107   3.4423   6.4559   7.3889  11.4405
    14.8567  18.6985  23.2871  24.0816  24.2440  25.0197  27.7314

          k = 0.4125-0.0589 0.6482 (  2128 PWs)   bands (ev):

   -22.5918  -5.4287  -4.8434  -4.0048   3.7097   6.6440   7.4220  10.8577
    15.5692  17.6354  23.3242  24.0928  24.9138  26.4968  27.1766

          k = 0.3536 0.0000 0.5893 (  2125 PWs)   bands (ev):

   -22.6007  -5.4030  -4.9723  -3.8616   3.9765   6.6891   7.1557  10.8620
    16.2604  16.5991  22.3854  24.7046  25.0056  25.5493  27.6320

          k =-0.2357-0.7071 0.0000 (  2126 PWs)   bands (ev):

   -22.5835  -5.5773  -4.4859  -4.1601   3.2156   6.3708   7.8359  11.2188
    14.9845  18.9417  23.5243  24.3032  25.4656  26.3046  27.0589

          k =-0.3536-0.7071 0.0000 (  2148 PWs)   bands (ev):

   -22.5823  -5.0704  -5.0704  -4.2683   3.7457   7.1562   7.1562  10.4132
    16.6696  16.6696  23.9927  24.5976  24.7648  26.9454  26.9463

     the Fermi energy is    20.1124 ev

!    total energy              =     -93.85937908 Ry
     estimated scf accuracy    <          3.7E-13 Ry
     smearing contrib. (-TS)   =       0.00020015 Ry
     internal energy E=F+TS    =     -93.85957924 Ry

     The total energy is F=E-TS. E is the sum of the following terms:
     one-electron contribution =      18.89685970 Ry
     hartree contribution      =       6.23371976 Ry
     xc contribution           =     -27.13482879 Ry
     ewald contribution        =     -91.85532991 Ry

     convergence has been achieved in  12 iterations

     Forces acting on atoms (cartesian axes, Ry/au):

     atom    1 type  1   force =     0.00000000    0.00000000    0.00000000
     atom    2 type  2   force =    -0.00000000   -0.00000000   -0.00000000
     atom    3 type  2   force =    -0.00000000    0.00000000   -0.00000000
     atom    4 type  2   force =     0.00000049    0.00000049    0.00000049
     atom    5 type  2   force =    -0.00000049   -0.00000049   -0.00000049
     atom    6 type  2   force =    -0.00000049    0.00000049    0.00000049
     atom    7 type  2   force =     0.00000049   -0.00000049   -0.00000049
     atom    8 type  2   force =    -0.00000049   -0.00000049    0.00000049
     atom    9 type  2   force =     0.00000049    0.00000049   -0.00000049
     atom   10 type  2   force =     0.00000049   -0.00000049    0.00000049
     atom   11 type  2   force =    -0.00000049    0.00000049   -0.00000049

     Total force =     0.000002     Total SCF correction =     0.000000
     SCF correction compared to forces is large: reduce conv_thr to get better values


     Computing stress (Cartesian axis) and pressure

          total   stress  (Ry/bohr**3)                   (kbar)     P=     2499.98
   0.01699451  -0.00000000   0.00000000         2499.98       -0.00        0.00
  -0.00000000   0.01699451   0.00000000           -0.00     2499.98        0.00
  -0.00000000   0.00000000   0.01699451           -0.00        0.00     2499.98


     Writing output data file ./tmp/yh10.save/

     init_run     :      0.83s CPU      0.97s WALL (       1 calls)
     electrons    :     15.95s CPU     18.47s WALL (       1 calls)
     forces       :      0.23s CPU      0.23s WALL (       1 calls)
     stress       :      0.48s CPU      0.49s WALL (       1 calls)

     Called by init_run:
     wfcinit      :      0.58s CPU      0.68s WALL (       1 calls)
     potinit      :      0.03s CPU      0.04s WALL (       1 calls)
     hinit0       :      0.13s CPU      0.14s WALL (       1 calls)

     Called by electrons:
     c_bands      :     13.32s CPU     15.39s WALL (      12 calls)
     sum_band     :      2.11s CPU      2.52s WALL (      12 calls)
     v_of_rho     :      0.18s CPU      0.20s WALL (      13 calls)
     newd         :      0.34s CPU      0.37s WALL (      13 calls)
     mix_rho      :      0.02s CPU      0.02s WALL (      12 calls)

     Called by c_bands:
     init_us_2    :      0.20s CPU      0.21s WALL (    1944 calls)
     cegterg      :     12.93s CPU     14.99s WALL (     864 calls)

     Called by *egterg:
     cdiaghg      :      1.41s CPU      1.47s WALL (    3030 calls)
     h_psi        :      8.66s CPU     10.64s WALL (    3102 calls)
     s_psi        :      0.76s CPU      0.81s WALL (    3102 calls)
     g_psi        :      0.06s CPU      0.06s WALL (    2166 calls)

     Called by h_psi:
     h_psi:calbec :      0.75s CPU      0.93s WALL (    3102 calls)
     vloc_psi     :      7.16s CPU      8.86s WALL (    3102 calls)
     add_vuspsi   :      0.72s CPU      0.82s WALL (    3102 calls)

     General routines
     calbec       :      1.17s CPU      1.40s WALL (    4326 calls)
     fft          :      0.11s CPU      0.14s WALL (     192 calls)
     ffts         :      0.00s CPU      0.01s WALL (      25 calls)
     fftw         :      7.84s CPU      9.72s WALL (   82178 calls)
     interpolate  :      0.01s CPU      0.01s WALL (      13 calls)

     Parallel routines
     fft_scatt_xy :      0.53s CPU      0.66s WALL (   82395 calls)
     fft_scatt_yz :      3.29s CPU      4.12s WALL (   82395 calls)

     PWSCF        :     17.71s CPU     20.46s WALL


   This run was terminated on:  22:40: 3  27May2026            

=------------------------------------------------------------------------------=
   JOB DONE.
=------------------------------------------------------------------------------=
