
     Program PWSCF v.6.7MaX starts on 27May2026 at 22:37:11 

     This program is part of the open-source Quantum ESPRESSO suite
     for quantum simulation of materials; please cite
         "P. Giannozzi et al., J. Phys.:Condens. Matter 21 395502 (2009);
         "P. Giannozzi et al., J. Phys.:Condens. Matter 29 465901 (2017);
          URL http://www.quantum-espresso.org", 
     in publications or presentations arising from this work. More details at
     http://www.quantum-espresso.org/quote

     Parallel version (MPI), running on     6 processors

     MPI processes distributed on     1 nodes
     R & G space division:  proc/nbgrp/npool/nimage =       6
     Reading input from vc-relax.in

     Current dimensions of program PWSCF are:
     Max number of different atomic species (ntypx) = 10
     Max number of k-points (npk) =  40000
     Max angular momentum in pseudopotentials (lmaxx) =  3

     File ./tmp/yh10.update deleted, as requested

     File ./tmp/yh10.bfgs deleted, as requested
     file Y.UPF: wavefunction(s)  4S renormalized

     Subspace diagonalization in iterative solution of the eigenvalue problem:
     one sub-group per band group will be used
     scalapack distributed-memory algorithm (size of sub-group:  2*  2 procs)


     Parallelization info
     --------------------
     sticks:   dense  smooth     PW     G-vecs:    dense   smooth      PW
     Min         369     148     44                11513     2912     481
     Max         371     149     45                11517     2914     483
     Sum        2221     889    265                69089    17477    2891



     bravais-lattice index     =            2
     lattice parameter (alat)  =       8.9762  a.u.
     unit-cell volume          =     180.8079 (a.u.)^3
     number of atoms/cell      =           11
     number of atomic types    =            2
     number of electrons       =        21.00
     number of Kohn-Sham states=           15
     kinetic-energy cutoff     =      80.0000  Ry
     charge density cutoff     =     800.0000  Ry
     scf convergence threshold =      1.0E-12
     mixing beta               =       0.4000
     number of iterations used =            8  plain     mixing
     energy convergence thresh.=      1.0E-05
     force convergence thresh. =      1.0E-04
     press convergence thresh. =      5.0E-01
     Exchange-correlation= PBE
                           (   1   4   3   4   0   0   0)
     nstep                     =          200


     celldm(1)=   8.976199  celldm(2)=   0.000000  celldm(3)=   0.000000
     celldm(4)=   0.000000  celldm(5)=   0.000000  celldm(6)=   0.000000

     crystal axes: (cart. coord. in units of alat)
               a(1) = (  -0.500000   0.000000   0.500000 )  
               a(2) = (   0.000000   0.500000   0.500000 )  
               a(3) = (  -0.500000   0.500000   0.000000 )  

     reciprocal axes: (cart. coord. in units 2 pi/alat)
               b(1) = ( -1.000000 -1.000000  1.000000 )  
               b(2) = (  1.000000  1.000000  1.000000 )  
               b(3) = ( -1.000000  1.000000 -1.000000 )  


     PseudoPot. # 1 for Y  read from file:
     ../pseudo/Y.UPF
     MD5 check sum: 5fe32e6a006803c2ec2edff47948a3c8
     Pseudo is Ultrasoft + core correction, Zval = 11.0
     Generated using &quot;atomic&quot; code by A. Dal Corso  v.6.2.2
     Using radial grid of 1223 points,  6 beta functions with: 
                l(1) =   0
                l(2) =   0
                l(3) =   1
                l(4) =   1
                l(5) =   2
                l(6) =   2
     Q(r) pseudized with 0 coefficients 


     PseudoPot. # 2 for H  read from file:
     ../pseudo/H.UPF
     MD5 check sum: 3f4114867bd07edc7f1424d066fc1888
     Pseudo is Ultrasoft, Zval =  1.0
     Generated using &quot;atomic&quot; code by A. Dal Corso  v.6.3MaX
     Using radial grid of  929 points,  2 beta functions with: 
                l(1) =   0
                l(2) =   0
     Q(r) pseudized with 0 coefficients 


     atomic species   valence    mass     pseudopotential
        Y             11.00    88.90600     Y ( 1.00)
        H              1.00     1.00800     H ( 1.00)

     48 Sym. Ops., with inversion, found



   Cartesian axes

     site n.     atom                  positions (alat units)
         1           Y   tau(   1) = (   0.0000000   0.0000000   0.0000000  )
         2           H   tau(   2) = (  -0.7500000   0.7500000   0.7500000  )
         3           H   tau(   3) = (  -0.2500000   0.2500000   0.2500000  )
         4           H   tau(   4) = (  -0.6250000   0.3750000   0.3750000  )
         5           H   tau(   5) = (  -0.3750000   0.6250000   0.6250000  )
         6           H   tau(   6) = (  -0.3750000   0.3750000   0.3750000  )
         7           H   tau(   7) = (  -0.6250000   0.6250000   0.6250000  )
         8           H   tau(   8) = (  -0.3750000   0.6250000   0.3750000  )
         9           H   tau(   9) = (  -0.6250000   0.3750000   0.6250000  )
        10           H   tau(  10) = (  -0.6250000   0.6250000   0.3750000  )
        11           H   tau(  11) = (  -0.3750000   0.3750000   0.6250000  )

     number of k points=    72  Methfessel-Paxton smearing, width (Ry)=  0.0200
                       cart. coord. in units 2pi/alat
        k(    1) = (   0.0000000   0.0000000   0.0000000), wk =   0.0011574
        k(    2) = (  -0.0833333   0.0833333  -0.0833333), wk =   0.0092593
        k(    3) = (  -0.1666667   0.1666667  -0.1666667), wk =   0.0092593
        k(    4) = (  -0.2500000   0.2500000  -0.2500000), wk =   0.0092593
        k(    5) = (  -0.3333333   0.3333333  -0.3333333), wk =   0.0092593
        k(    6) = (  -0.4166667   0.4166667  -0.4166667), wk =   0.0092593
        k(    7) = (   0.5000000  -0.5000000   0.5000000), wk =   0.0046296
        k(    8) = (   0.0000000   0.1666667   0.0000000), wk =   0.0069444
        k(    9) = (  -0.0833333   0.2500000  -0.0833333), wk =   0.0277778
        k(   10) = (  -0.1666667   0.3333333  -0.1666667), wk =   0.0277778
        k(   11) = (  -0.2500000   0.4166667  -0.2500000), wk =   0.0277778
        k(   12) = (  -0.3333333   0.5000000  -0.3333333), wk =   0.0277778
        k(   13) = (   0.5833333  -0.4166667   0.5833333), wk =   0.0277778
        k(   14) = (   0.5000000  -0.3333333   0.5000000), wk =   0.0277778
        k(   15) = (   0.4166667  -0.2500000   0.4166667), wk =   0.0277778
        k(   16) = (   0.3333333  -0.1666667   0.3333333), wk =   0.0277778
        k(   17) = (   0.2500000  -0.0833333   0.2500000), wk =   0.0277778
        k(   18) = (   0.1666667  -0.0000000   0.1666667), wk =   0.0138889
        k(   19) = (   0.0000000   0.3333333   0.0000000), wk =   0.0069444
        k(   20) = (  -0.0833333   0.4166667  -0.0833333), wk =   0.0277778
        k(   21) = (  -0.1666667   0.5000000  -0.1666667), wk =   0.0277778
        k(   22) = (  -0.2500000   0.5833333  -0.2500000), wk =   0.0277778
        k(   23) = (   0.6666667  -0.3333333   0.6666667), wk =   0.0277778
        k(   24) = (   0.5833333  -0.2500000   0.5833333), wk =   0.0277778
        k(   25) = (   0.5000000  -0.1666667   0.5000000), wk =   0.0277778
        k(   26) = (   0.4166667  -0.0833333   0.4166667), wk =   0.0277778
        k(   27) = (   0.3333333   0.0000000   0.3333333), wk =   0.0138889
        k(   28) = (   0.0000000   0.5000000   0.0000000), wk =   0.0069444
        k(   29) = (  -0.0833333   0.5833333  -0.0833333), wk =   0.0277778
        k(   30) = (  -0.1666667   0.6666667  -0.1666667), wk =   0.0277778
        k(   31) = (   0.7500000  -0.2500000   0.7500000), wk =   0.0277778
        k(   32) = (   0.6666667  -0.1666667   0.6666667), wk =   0.0277778
        k(   33) = (   0.5833333  -0.0833333   0.5833333), wk =   0.0277778
        k(   34) = (   0.5000000   0.0000000   0.5000000), wk =   0.0138889
        k(   35) = (   0.0000000   0.6666667   0.0000000), wk =   0.0069444
        k(   36) = (  -0.0833333   0.7500000  -0.0833333), wk =   0.0277778
        k(   37) = (   0.8333333  -0.1666667   0.8333333), wk =   0.0277778
        k(   38) = (   0.7500000  -0.0833333   0.7500000), wk =   0.0277778
        k(   39) = (   0.6666667  -0.0000000   0.6666667), wk =   0.0138889
        k(   40) = (   0.0000000   0.8333333   0.0000000), wk =   0.0069444
        k(   41) = (   0.9166667  -0.0833333   0.9166667), wk =   0.0277778
        k(   42) = (   0.8333333   0.0000000   0.8333333), wk =   0.0138889
        k(   43) = (   0.0000000  -1.0000000   0.0000000), wk =   0.0034722
        k(   44) = (  -0.1666667   0.3333333   0.0000000), wk =   0.0277778
        k(   45) = (  -0.2500000   0.4166667  -0.0833333), wk =   0.0555556
        k(   46) = (  -0.3333333   0.5000000  -0.1666667), wk =   0.0555556
        k(   47) = (   0.5833333  -0.4166667   0.7500000), wk =   0.0555556
        k(   48) = (   0.5000000  -0.3333333   0.6666667), wk =   0.0277778
        k(   49) = (  -0.1666667   0.5000000   0.0000000), wk =   0.0277778
        k(   50) = (  -0.2500000   0.5833333  -0.0833333), wk =   0.0555556
        k(   51) = (   0.6666667  -0.3333333   0.8333333), wk =   0.0555556
        k(   52) = (   0.5833333  -0.2500000   0.7500000), wk =   0.0555556
        k(   53) = (   0.5000000  -0.1666667   0.6666667), wk =   0.0555556
        k(   54) = (   0.4166667  -0.0833333   0.5833333), wk =   0.0555556
        k(   55) = (   0.3333333   0.0000000   0.5000000), wk =   0.0277778
        k(   56) = (  -0.1666667   0.6666667  -0.0000000), wk =   0.0277778
        k(   57) = (   0.7500000  -0.2500000   0.9166667), wk =   0.0555556
        k(   58) = (   0.6666667  -0.1666667   0.8333333), wk =   0.0555556
        k(   59) = (   0.5833333  -0.0833333   0.7500000), wk =   0.0555556
        k(   60) = (   0.5000000   0.0000000   0.6666667), wk =   0.0277778
        k(   61) = (   0.8333333  -0.1666667   1.0000000), wk =   0.0277778
        k(   62) = (   0.7500000  -0.0833333   0.9166667), wk =   0.0555556
        k(   63) = (   0.6666667   0.0000000   0.8333333), wk =   0.0277778
        k(   64) = (  -0.1666667  -1.0000000  -0.0000000), wk =   0.0138889
        k(   65) = (   0.6666667  -0.3333333   1.0000000), wk =   0.0277778
        k(   66) = (   0.5833333  -0.2500000   0.9166667), wk =   0.0555556
        k(   67) = (   0.5000000  -0.1666667   0.8333333), wk =   0.0277778
        k(   68) = (   0.6666667  -0.1666667   1.0000000), wk =   0.0277778
        k(   69) = (   0.5833333  -0.0833333   0.9166667), wk =   0.0555556
        k(   70) = (   0.5000000   0.0000000   0.8333333), wk =   0.0277778
        k(   71) = (  -0.3333333  -1.0000000   0.0000000), wk =   0.0138889
        k(   72) = (  -0.5000000  -1.0000000   0.0000000), wk =   0.0069444

     Dense  grid:    69089 G-vectors     FFT dimensions: (  60,  60,  60)

     Smooth grid:    17477 G-vectors     FFT dimensions: (  40,  40,  40)

     Estimated max dynamical RAM per process >      65.18 MB

     Estimated total dynamical RAM >     391.06 MB

     Initial potential from superposition of free atoms

     starting charge   20.99582, renormalised to   21.00000
     Starting wfcs are   23 randomized atomic wfcs

     total cpu time spent up to now is        2.4 secs

     Self-consistent Calculation

     iteration #  1     ecut=    80.00 Ry     beta= 0.40
     Davidson diagonalization with overlap
     ethr =  1.00E-02,  avg # of iterations =  3.1

     total cpu time spent up to now is        4.2 secs

     total energy              =     -93.94584896 Ry
     estimated scf accuracy    <       0.24457596 Ry

     iteration #  2     ecut=    80.00 Ry     beta= 0.40
     Davidson diagonalization with overlap
     ethr =  1.16E-03,  avg # of iterations =  1.3

     total cpu time spent up to now is        5.5 secs

     total energy              =     -93.94940026 Ry
     estimated scf accuracy    <       0.03760872 Ry

     iteration #  3     ecut=    80.00 Ry     beta= 0.40
     Davidson diagonalization with overlap
     ethr =  1.79E-04,  avg # of iterations =  3.1

     total cpu time spent up to now is        7.1 secs

     total energy              =     -93.95554247 Ry
     estimated scf accuracy    <       0.00288250 Ry

     iteration #  4     ecut=    80.00 Ry     beta= 0.40
     Davidson diagonalization with overlap
     ethr =  1.37E-05,  avg # of iterations =  3.6

     total cpu time spent up to now is        9.0 secs

     total energy              =     -93.95577246 Ry
     estimated scf accuracy    <       0.00094592 Ry

     iteration #  5     ecut=    80.00 Ry     beta= 0.40
     Davidson diagonalization with overlap
     ethr =  4.50E-06,  avg # of iterations =  3.2

     total cpu time spent up to now is       10.8 secs

     total energy              =     -93.95599310 Ry
     estimated scf accuracy    <       0.00001909 Ry

     iteration #  6     ecut=    80.00 Ry     beta= 0.40
     Davidson diagonalization with overlap
     ethr =  9.09E-08,  avg # of iterations =  2.2

     total cpu time spent up to now is       12.4 secs

     total energy              =     -93.95599754 Ry
     estimated scf accuracy    <       0.00000209 Ry

     iteration #  7     ecut=    80.00 Ry     beta= 0.40
     Davidson diagonalization with overlap
     ethr =  9.95E-09,  avg # of iterations =  2.3

     total cpu time spent up to now is       14.0 secs

     total energy              =     -93.95599813 Ry
     estimated scf accuracy    <       0.00000022 Ry

     iteration #  8     ecut=    80.00 Ry     beta= 0.40
     Davidson diagonalization with overlap
     ethr =  1.07E-09,  avg # of iterations =  1.4

     total cpu time spent up to now is       15.3 secs

     total energy              =     -93.95599815 Ry
     estimated scf accuracy    <       0.00000001 Ry

     iteration #  9     ecut=    80.00 Ry     beta= 0.40
     Davidson diagonalization with overlap
     ethr =  6.32E-11,  avg # of iterations =  2.2

     total cpu time spent up to now is       16.9 secs

     total energy              =     -93.95599815 Ry
     estimated scf accuracy    <          3.2E-10 Ry

     iteration # 10     ecut=    80.00 Ry     beta= 0.40
     Davidson diagonalization with overlap
     ethr =  1.51E-12,  avg # of iterations =  2.9

     total cpu time spent up to now is       18.7 secs

     total energy              =     -93.95599815 Ry
     estimated scf accuracy    <          1.1E-10 Ry

     iteration # 11     ecut=    80.00 Ry     beta= 0.40
     Davidson diagonalization with overlap
     ethr =  5.32E-13,  avg # of iterations =  1.1

     total cpu time spent up to now is       19.9 secs

     total energy              =     -93.95599815 Ry
     estimated scf accuracy    <          2.5E-11 Ry

     iteration # 12     ecut=    80.00 Ry     beta= 0.40
     Davidson diagonalization with overlap
     ethr =  1.18E-13,  avg # of iterations =  2.0

     total cpu time spent up to now is       21.5 secs

     End of self-consistent calculation

          k = 0.0000 0.0000 0.0000 (  2133 PWs)   bands (ev):

   -23.8142  -3.5506  -3.5506  -3.5506  -1.4311   9.3117  13.0053  13.0053
    13.0053  14.2477  14.2477  14.2477  18.4662  19.3884  19.3884

          k =-0.0833 0.0833-0.0833 (  2169 PWs)   bands (ev):

   -23.7907  -4.0756  -3.5662  -3.5662  -0.8335   8.6738  12.7436  12.8321
    12.8321  14.2229  14.2229  14.8469  19.4032  20.0537  20.0537

          k =-0.1667 0.1667-0.1667 (  2169 PWs)   bands (ev):

   -23.7258  -4.9711  -3.6081  -3.6081   0.2569   7.5482  11.8197  12.1863
    12.1863  14.6390  14.6390  16.6490  21.4982  21.6670  21.6670

          k =-0.2500 0.2500-0.2500 (  2178 PWs)   bands (ev):

   -23.6352  -5.8033  -3.6637  -3.6637   1.3283   6.5880  10.9665  11.3972
    11.3972  15.5776  15.5776  18.7066  23.7536  23.7536  23.9037

          k =-0.3333 0.3333-0.3333 (  2181 PWs)   bands (ev):

   -23.5423  -6.4570  -3.7174  -3.7174   2.1356   5.9920  10.4406  10.7456
    10.7456  16.8952  16.8952  20.0870  25.2673  25.5107  25.5107

          k =-0.4167 0.4167-0.4167 (  2195 PWs)   bands (ev):

   -23.4728  -6.8733  -3.7557  -3.7557   2.5486   5.7592  10.2527  10.3306
    10.3306  18.4556  18.4556  20.0729  23.3754  23.3754  26.6941

          k = 0.5000-0.5000 0.5000 (  2186 PWs)   bands (ev):

   -23.4470  -7.0163  -3.7695  -3.7695   2.6542   5.7182  10.1890  10.1890
    10.2341  19.5600  19.5600  19.8290  22.0354  22.0354  27.8376

          k = 0.0000 0.1667 0.0000 (  2153 PWs)   bands (ev):

   -23.7829  -4.1404  -3.6138  -3.6138  -0.6591   8.5171  12.5020  12.5595
    12.5595  14.1379  15.1968  15.1968  18.9858  19.5264  21.2248

          k =-0.0833 0.2500-0.0833 (  2162 PWs)   bands (ev):

   -23.7319  -4.8065  -3.6831  -3.6528   0.2058   7.6644  10.9493  12.2248
    12.8783  14.4004  15.8019  16.5411  20.1453  20.3441  23.0500

          k =-0.1667 0.3333-0.1667 (  2180 PWs)   bands (ev):

   -23.6499  -5.5794  -3.7543  -3.7121   1.2442   6.7545   9.7584  11.6992
    12.8960  14.6218  16.5158  18.4449  22.1030  22.4307  25.0116

          k =-0.2500 0.4167-0.2500 (  2172 PWs)   bands (ev):

   -23.5578  -6.2412  -3.8081  -3.8016   2.1527   6.0770   8.9976  11.1116
    12.4840  15.5753  17.6261  20.0914  24.2457  24.6786  25.4381

          k =-0.3333 0.5000-0.3333 (  2189 PWs)   bands (ev):

   -23.4803  -6.7058  -3.8976  -3.8311   2.7283   5.7060   8.6620  10.6326
    12.1771  16.7620  19.0116  20.5493  23.1644  25.2001  26.3456

          k = 0.5833-0.4167 0.5833 (  2182 PWs)   bands (ev):

   -23.4398  -6.9258  -3.9737  -3.8183   2.9522   5.5792   8.5946  10.3618
    12.0948  17.6789  19.6563  20.8720  22.1740  23.4175  27.6180

          k = 0.5000-0.3333 0.5000 (  2183 PWs)   bands (ev):

   -23.4483  -6.8796  -4.0093  -3.7733   2.9216   5.6148   8.5957  10.3490
    12.1951  18.0904  18.2111  21.5776  22.3822  23.7442  27.0122

          k = 0.4167-0.2500 0.4167 (  2183 PWs)   bands (ev):

   -23.5034  -6.5732  -3.9936  -3.7073   2.5995   5.8277   8.7256  10.6167
    12.4660  16.5566  17.8071  20.8371  23.8976  25.4654  25.9494

          k = 0.3333-0.1667 0.3333 (  2179 PWs)   bands (ev):

   -23.5886  -6.0396  -3.9271  -3.6368   1.8919   6.3073   9.2006  11.1693
    12.9024  15.1455  16.7589  19.8476  23.1032  24.5799  25.6774

          k = 0.2500-0.0833 0.2500 (  2171 PWs)   bands (ev):

   -23.6800  -5.3411  -3.8202  -3.5803   0.8973   7.0716  10.0927  11.9913
    13.3668  14.0568  15.5812  18.2230  20.7426  23.3161  23.4813

          k = 0.1667-0.0000 0.1667 (  2157 PWs)   bands (ev):

   -23.7534  -4.5963  -3.6869  -3.5540  -0.1373   7.9860  11.3375  13.0009
    13.3454  13.4554  14.6130  16.4725  19.4547  21.2835  21.5197

          k = 0.0000 0.3333 0.0000 (  2181 PWs)   bands (ev):

   -23.6969  -5.0263  -3.7834  -3.7834   0.7154   7.2191   9.9442  12.2077
    12.2077  16.4446  17.0159  17.0159  19.7239  19.9297  24.8179

          k =-0.0833 0.4167-0.0833 (  2181 PWs)   bands (ev):

   -23.6291  -5.5297  -3.8870  -3.8809   1.5255   6.5643   8.7416  12.0226
    12.4562  16.5751  17.8423  18.7726  20.9201  21.2393  26.3040

          k =-0.1667 0.5000-0.1667 (  2171 PWs)   bands (ev):

   -23.5457  -6.0535  -4.0417  -3.9502   2.3908   6.0022   7.8302  11.6415
    12.8993  16.4212  18.7067  20.4467  22.8023  23.8943  25.1793

          k =-0.2500 0.5833-0.2500 (  2175 PWs)   bands (ev):

   -23.4687  -6.4587  -4.2421  -3.9744   3.1065   5.5568   7.4383  11.1993
    13.2361  16.5311  19.8389  21.1857  23.0862  25.0704  25.0711

          k = 0.6667-0.3333 0.6667 (  2175 PWs)   bands (ev):

   -23.4198  -6.6829  -4.4315  -3.9481   3.5748   5.2265   7.4306  10.8445
    13.5517  16.6056  19.9484  21.4767  22.5522  25.8882  27.1081

          k = 0.5833-0.2500 0.5833 (  2189 PWs)   bands (ev):

   -23.4132  -6.7029  -4.5492  -3.8779   3.7401   5.1911   7.3833  10.6701
    13.9732  16.6825  18.3055  22.4171  24.1822  24.2315  26.6188

          k = 0.5000-0.1667 0.5000 (  2193 PWs)   bands (ev):

   -23.4509  -6.5282  -4.5495  -3.7809   3.4758   5.5786   7.2423  10.7231
    14.3912  16.6503  17.0156  22.5436  23.3912  25.2678  26.3686

          k = 0.4167-0.0833 0.4167 (  2177 PWs)   bands (ev):

   -23.5218  -6.1993  -4.4099  -3.6819   2.7969   6.1101   7.5126  11.0150
    14.6756  15.2925  16.9048  21.5500  23.1479  23.7063  26.7804

          k = 0.3333 0.0000 0.3333 (  2191 PWs)   bands (ev):

   -23.6057  -5.7791  -4.1425  -3.6078   1.8484   6.5652   8.5389  11.5026
    14.3571  14.4889  16.1307  20.6788  20.8603  24.2614  25.5642

          k = 0.0000 0.5000 0.0000 (  2181 PWs)   bands (ev):

   -23.5779  -5.7383  -4.0078  -4.0078   1.9935   6.0860   7.9221  12.2290
    12.2290  19.2392  19.2903  19.2903  20.5588  20.8885  26.2489

          k =-0.0833 0.5833-0.0833 (  2180 PWs)   bands (ev):

   -23.5091  -6.0517  -4.1719  -4.1022   2.5490   5.6637   7.2167  12.1830
    12.5133  19.0286  20.0764  21.2010  21.8168  22.9921  24.8495

          k =-0.1667 0.6667-0.1667 (  2179 PWs)   bands (ev):

   -23.4409  -6.3002  -4.4660  -4.1418   3.1110   5.4079   6.8111  11.9033
    12.9232  18.6002  20.8450  22.0593  22.9620  24.0329  24.5675

          k = 0.7500-0.2500 0.7500 (  2188 PWs)   bands (ev):

   -23.3920  -6.4082  -4.8298  -4.1177   3.6464   5.1618   6.7911  11.5354
    13.2961  18.0315  20.4319  22.2473  23.0054  25.8734  26.3703

          k = 0.6667-0.1667 0.6667 (  2196 PWs)   bands (ev):

   -23.3764  -6.3787  -5.1259  -4.0355   4.2508   4.8565   6.7753  11.2132
    13.8479  17.4574  18.7553  23.0024  24.6803  25.9380  26.3924

          k = 0.5833-0.0833 0.5833 (  2188 PWs)   bands (ev):

   -23.3987  -6.3033  -5.1810  -3.9144   4.4371   5.0610   6.4570  11.0106
    14.8510  16.9595  17.2018  23.2706  24.2757  25.4345  26.7001

          k = 0.5000 0.0000 0.5000 (  2181 PWs)   bands (ev):

   -23.4522  -6.2664  -4.8984  -3.7847   3.7474   6.1323   6.1403  10.9502
    16.0066  16.0802  16.1422  22.5556  22.9306  25.7615  26.3338

          k = 0.0000 0.6667 0.0000 (  2181 PWs)   bands (ev):

   -23.4572  -6.2114  -4.2243  -4.2243   2.6020   5.2469   6.9943  12.5325
    12.5325  21.3214  21.7785  21.7785  22.3488  22.5033  24.2402

          k =-0.0833 0.7500-0.0833 (  2181 PWs)   bands (ev):

   -23.4039  -6.3505  -4.4279  -4.2880   2.7307   5.0430   6.8998  12.5506
    12.7707  21.2328  21.7080  22.5976  23.1740  23.9889  24.2497

          k = 0.8333-0.1667 0.8333 (  2179 PWs)   bands (ev):

   -23.3637  -6.3452  -4.8509  -4.2792   3.0408   5.0860   6.8566  12.2776
    12.9073  20.2254  21.0530  23.0388  23.2456  25.3658  26.1654

          k = 0.7500-0.0833 0.7500 (  2184 PWs)   bands (ev):

   -23.3479  -6.1475  -5.3849  -4.2000   3.5391   5.1897   6.7618  11.8575
    13.0505  19.3354  19.5454  23.9214  24.5368  25.8640  26.4129

          k = 0.6667-0.0000 0.6667 (  2185 PWs)   bands (ev):

   -23.3608  -5.9292  -5.7186  -4.0678   4.2217   5.0980   6.4863  11.4100
    13.6960  18.1953  18.3424  24.1402  24.9325  25.3982  26.2202

          k = 0.0000 0.8333 0.0000 (  2176 PWs)   bands (ev):

   -23.3678  -6.4641  -4.3781  -4.3781   2.4221   4.7359   7.1305  12.9167
    12.9167  22.0192  22.3639  22.3639  24.5228  24.7460  24.7461

          k = 0.9167-0.0833 0.9167 (  2188 PWs)   bands (ev):

   -23.3427  -6.4719  -4.5824  -4.3928   2.4704   4.7284   7.2006  12.8685
    12.9739  21.6262  21.6425  22.5635  24.6400  25.2827  25.7343

          k = 0.8333 0.0000 0.8333 (  2189 PWs)   bands (ev):

   -23.3354  -6.3223  -5.0205  -4.3289   2.8821   4.9828   7.0626  12.4622
    12.8579  20.5843  20.7295  23.5340  24.6519  25.6855  26.2872

          k = 0.0000-1.0000 0.0000 (  2200 PWs)   bands (ev):

   -23.3349  -6.5406  -4.4335  -4.4335   2.2402   4.5646   7.3348  13.0985
    13.0985  21.8977  21.8977  22.3217  24.8061  26.0173  26.0173

          k =-0.1667 0.3333 0.0000 (  2176 PWs)   bands (ev):

   -23.6724  -5.3041  -3.8822  -3.6661   1.0243   7.0074   9.5729  12.0885
    12.8203  15.3063  16.0393  18.6166  20.0509  21.9871  24.9092

          k =-0.2500 0.4167-0.0833 (  2178 PWs)   bands (ev):

   -23.5897  -5.8699  -4.0802  -3.7143   1.9866   6.3702   8.4072  11.5270
    13.3203  15.4954  17.0524  20.1972  21.8415  23.9558  25.1679

          k =-0.3333 0.5000-0.1667 (  2178 PWs)   bands (ev):

   -23.5051  -6.3562  -4.2293  -3.7924   2.8215   5.8493   7.7621  11.0061
    13.5635  15.9290  18.1030  21.3196  23.6639  24.3011  25.4864

          k = 0.5833-0.4167 0.7500 (  2182 PWs)   bands (ev):

   -23.4420  -6.6788  -4.3191  -3.8631   3.3422   5.4521   7.6401  10.6629
    13.5513  16.5390  18.7262  22.2054  22.5897  25.3587  26.3210

          k = 0.5000-0.3333 0.6667 (  2180 PWs)   bands (ev):

   -23.4186  -6.7915  -4.3486  -3.8914   3.5123   5.2899   7.6844  10.5440
    13.5334  16.6878  19.1731  21.6076  23.5519  24.0473  27.5921

          k =-0.1667 0.5000 0.0000 (  2174 PWs)   bands (ev):

   -23.5608  -5.8784  -4.1391  -3.9125   2.2433   6.0940   7.7297  11.8919
    12.6980  17.7533  17.9719  20.9169  21.1691  23.0204  24.9516

          k =-0.2500 0.5833-0.0833 (  2181 PWs)   bands (ev):

   -23.4849  -6.2029  -4.3963  -3.9939   3.0031   5.7497   6.9733  11.5275
    13.2732  17.5738  19.0065  21.7826  23.3181  23.6796  25.0838

          k = 0.6667-0.3333 0.8333 (  2187 PWs)   bands (ev):

   -23.4221  -6.4235  -4.6438  -4.0619   3.6502   5.3475   6.8066  11.1448
    13.8310  17.0751  19.6622  22.7367  22.7681  24.5291  26.4121

          k = 0.5833-0.2500 0.7500 (  2195 PWs)   bands (ev):

   -23.3901  -6.5097  -4.8370  -4.0628   4.1817   4.9032   6.9265  10.8772
    14.3870  16.3733  19.6297  22.0570  24.1604  25.9397  26.8280

          k = 0.5000-0.1667 0.6667 (  2192 PWs)   bands (ev):

   -23.3983  -6.4687  -4.9017  -3.9934   4.2623   4.9848   6.7958  10.8137
    15.0288  15.8646  18.6523  22.8234  24.4108  25.1120  26.3919

          k = 0.4167-0.0833 0.5833 (  2188 PWs)   bands (ev):

   -23.4441  -6.3329  -4.7799  -3.8826   3.7160   5.7004   6.5583  10.9473
    14.7931  16.3343  17.7540  22.8342  22.9547  25.0420  26.2280

          k = 0.3333 0.0000 0.5000 (  2177 PWs)   bands (ev):

   -23.5145  -6.1297  -4.4771  -3.7743   2.9002   6.1161   7.1219  11.2183
    14.0326  16.6845  16.9975  21.6661  23.1182  23.3945  26.5460

          k =-0.1667 0.6667-0.0000 (  2191 PWs)   bands (ev):

   -23.4480  -6.2340  -4.3852  -4.1975   2.9055   5.3937   6.7988  12.0479
    12.9153  19.8141  20.5377  21.8695  23.4620  23.6586  24.5994

          k = 0.7500-0.2500 0.9167 (  2182 PWs)   bands (ev):

   -23.3938  -6.3113  -4.7192  -4.2811   3.3078   5.3269   6.5915  11.6512
    13.4315  18.9789  21.1659  22.8673  23.0399  23.8523  26.1556

          k = 0.6667-0.1667 0.8333 (  2193 PWs)   bands (ev):

   -23.3617  -6.2422  -5.1454  -4.2715   3.7561   5.2587   6.6155  11.2219
    13.8340  17.9167  20.7722  22.7198  24.1936  25.5602  26.6331

          k = 0.5833-0.0833 0.7500 (  2194 PWs)   bands (ev):

   -23.3608  -6.0997  -5.4583  -4.1759   4.2802   5.1271   6.4862  10.9792
    14.3739  16.9210  19.6960  23.5482  24.8445  25.5021  26.1766

          k = 0.5000 0.0000 0.6667 (  2182 PWs)   bands (ev):

   -23.3911  -6.1832  -5.2819  -4.0295   4.4276   5.3165   6.1513  10.9348
    15.3647  15.8819  18.6366  23.2411  24.1606  24.9015  27.4440

          k = 0.8333-0.1667 1.0000 (  2186 PWs)   bands (ev):

   -23.3647  -6.3929  -4.5591  -4.4330   2.7692   4.9590   6.9555  12.2355
    13.2542  20.5854  22.4836  22.5714  23.6628  24.0272  26.0402

          k = 0.7500-0.0833 0.9167 (  2195 PWs)   bands (ev):

   -23.3411  -6.2808  -4.9665  -4.4514   3.0858   5.1322   6.9131  11.6466
    13.6102  19.3832  21.8666  23.3437  24.0312  25.4054  26.1662

          k = 0.6667 0.0000 0.8333 (  2196 PWs)   bands (ev):

   -23.3397  -6.0113  -5.4917  -4.3461   3.6125   5.3359   6.6996  11.1786
    13.8320  18.1925  20.9141  24.3181  24.3385  25.3896  26.5586

          k =-0.1667-1.0000-0.0000 (  2198 PWs)   bands (ev):

   -23.3340  -6.4305  -4.6215  -4.5272   2.5977   4.8119   7.1889  12.2968
    13.4220  20.5921  22.0519  22.8255  25.2569  25.4376  25.4391

          k = 0.6667-0.3333 1.0000 (  2202 PWs)   bands (ev):

   -23.4233  -6.2578  -4.7908  -4.1161   3.6546   5.7488   6.2086  11.1930
    14.0519  17.6002  19.3913  22.7550  23.0298  24.4128  26.1775

          k = 0.5833-0.2500 0.9167 (  2195 PWs)   bands (ev):

   -23.3776  -6.2246  -5.1167  -4.2522   4.1310   5.4328   6.2573  10.8256
    14.8565  16.5153  20.2653  23.1226  24.0106  24.4178  26.9803

          k = 0.5000-0.1667 0.8333 (  2202 PWs)   bands (ev):

   -23.3608  -6.1866  -5.2557  -4.3097   4.3364   5.1618   6.4863  10.6416
    15.5141  15.7024  20.7675  22.4599  25.0028  25.8745  26.3666

          k = 0.6667-0.1667 1.0000 (  2185 PWs)   bands (ev):

   -23.3567  -6.1929  -5.0087  -4.5051   3.5780   5.5081   6.4402  10.9947
    14.2727  17.9681  22.2937  23.0671  23.4648  24.1663  26.7109

          k = 0.5833-0.0833 0.9167 (  2196 PWs)   bands (ev):

   -23.3396  -5.9483  -5.4063  -4.5829   3.8622   5.6848   6.4057  10.4409
    14.9665  16.9587  22.3318  23.1170  24.0004  25.6489  26.2620

          k = 0.5000 0.0000 0.8333 (  2195 PWs)   bands (ev):

   -23.3473  -5.8894  -5.5431  -4.4664   4.1149   5.7557   6.1486  10.4398
    15.6237  15.9552  21.4601  23.6469  24.1763  24.6629  26.6844

          k =-0.3333-1.0000 0.0000 (  2188 PWs)   bands (ev):

   -23.3323  -6.1136  -5.0862  -4.7003   3.4075   5.4241   6.7720  10.7966
    14.4018  18.2113  22.4987  23.4423  24.3860  25.3825  26.2891

          k =-0.5000-1.0000 0.0000 (  2208 PWs)   bands (ev):

   -23.3314  -5.6350  -5.6350  -4.7808   3.8949   6.1451   6.1451  10.0266
    16.0316  16.0316  22.9966  23.6488  23.6827  25.9454  25.9454

     the Fermi energy is    19.3530 ev

!    total energy              =     -93.95599815 Ry
     estimated scf accuracy    <          1.3E-13 Ry
     smearing contrib. (-TS)   =       0.00014391 Ry
     internal energy E=F+TS    =     -93.95614206 Ry

     The total energy is F=E-TS. E is the sum of the following terms:
     one-electron contribution =      17.19207944 Ry
     hartree contribution      =       6.53121242 Ry
     xc contribution           =     -26.99994405 Ry
     ewald contribution        =     -90.67948987 Ry

     convergence has been achieved in  12 iterations

     Forces acting on atoms (cartesian axes, Ry/au):

     atom    1 type  1   force =     0.00000000    0.00000000   -0.00000000
     atom    2 type  2   force =     0.00000000    0.00000000    0.00000000
     atom    3 type  2   force =    -0.00000000   -0.00000000    0.00000000
     atom    4 type  2   force =     0.01499621    0.01499621    0.01499621
     atom    5 type  2   force =    -0.01499621   -0.01499621   -0.01499621
     atom    6 type  2   force =    -0.01499621    0.01499621    0.01499621
     atom    7 type  2   force =     0.01499621   -0.01499621   -0.01499621
     atom    8 type  2   force =    -0.01499621   -0.01499621    0.01499621
     atom    9 type  2   force =     0.01499621    0.01499621   -0.01499621
     atom   10 type  2   force =     0.01499621   -0.01499621    0.01499621
     atom   11 type  2   force =    -0.01499621    0.01499621   -0.01499621

     Total force =     0.073466     Total SCF correction =     0.000000


     Computing stress (Cartesian axis) and pressure

          total   stress  (Ry/bohr**3)                   (kbar)     P=     2239.45
   0.01522350   0.00000000   0.00000000         2239.45        0.00        0.00
   0.00000000   0.01522350  -0.00000000            0.00     2239.45       -0.00
   0.00000000  -0.00000000   0.01522350            0.00       -0.00     2239.45


     BFGS Geometry Optimization
     Energy error            =      0.0E+00
     Gradient error          =      1.5E-02
     Cell gradient error     =      1.8E-03


     number of scf cycles    =   1
     number of bfgs steps    =   0

     enthalpy new            =     -90.8832300642 Ry

     new trust radius        =       0.1190787142 bohr
     new conv_thr            =            1.0E-12 Ry

     new unit-cell volume =    157.83785 a.u.^3 (    23.38916 Ang^3 )
     density =      7.02762 g/cm^3

CELL_PARAMETERS (alat=  8.97619911)
  -0.477860621  -0.000000000   0.477860621
   0.000000000   0.477860621   0.477860621
  -0.477860621   0.477860621  -0.000000000

ATOMIC_POSITIONS (crystal)
Y            -0.0000000000        0.0000000000        0.0000000000
H             0.7500000000        0.7500000000        0.7500000000
H             0.2500000000        0.2500000000        0.2500000000
H             0.6233293368        0.1300119897        0.6233293368
H             0.3766706632        0.8699880103        0.3766706632
H             0.3766706632        0.3766706632        0.3766706632
H             0.6233293368        0.6233293368        0.6233293368
H             0.1300119897        0.6233293368        0.6233293368
H             0.8699880103        0.3766706632        0.3766706632
H             0.3766706632        0.3766706632        0.8699880103
H             0.6233293368        0.6233293368        0.1300119897



     Writing output data file ./tmp/yh10.save/
     NEW-OLD atomic charge density approx. for the potential
     extrapolated charge   17.94449, renormalised to   21.00000

     total cpu time spent up to now is       24.5 secs

     Self-consistent Calculation

     iteration #  1     ecut=    80.00 Ry     beta= 0.40
     Davidson diagonalization with overlap
     ethr =  1.00E-06,  avg # of iterations =  9.4

     total cpu time spent up to now is       28.5 secs

     total energy              =     -93.31089158 Ry
     estimated scf accuracy    <       0.20859521 Ry

     iteration #  2     ecut=    80.00 Ry     beta= 0.40
     Davidson diagonalization with overlap
     ethr =  9.93E-04,  avg # of iterations =  3.2

     total cpu time spent up to now is       30.4 secs

     total energy              =     -93.53209377 Ry
     estimated scf accuracy    <       0.05270811 Ry

     iteration #  3     ecut=    80.00 Ry     beta= 0.40
     Davidson diagonalization with overlap
     ethr =  2.51E-04,  avg # of iterations =  1.5

     total cpu time spent up to now is       31.7 secs

     total energy              =     -93.52420759 Ry
     estimated scf accuracy    <       0.01586973 Ry

     iteration #  4     ecut=    80.00 Ry     beta= 0.40
     Davidson diagonalization with overlap
     ethr =  7.56E-05,  avg # of iterations =  2.1

     total cpu time spent up to now is       33.3 secs

     total energy              =     -93.52720602 Ry
     estimated scf accuracy    <       0.00017397 Ry

     iteration #  5     ecut=    80.00 Ry     beta= 0.40
     Davidson diagonalization with overlap
     ethr =  8.28E-07,  avg # of iterations =  4.4

     total cpu time spent up to now is       35.3 secs

     total energy              =     -93.52728122 Ry
     estimated scf accuracy    <       0.00009186 Ry

     iteration #  6     ecut=    80.00 Ry     beta= 0.40
     Davidson diagonalization with overlap
     ethr =  4.37E-07,  avg # of iterations =  1.8

     total cpu time spent up to now is       36.7 secs

     total energy              =     -93.52728768 Ry
     estimated scf accuracy    <       0.00000667 Ry

     iteration #  7     ecut=    80.00 Ry     beta= 0.40
     Davidson diagonalization with overlap
     ethr =  3.18E-08,  avg # of iterations =  2.1

     total cpu time spent up to now is       38.2 secs

     total energy              =     -93.52728886 Ry
     estimated scf accuracy    <       0.00000023 Ry

     iteration #  8     ecut=    80.00 Ry     beta= 0.40
     Davidson diagonalization with overlap
     ethr =  1.10E-09,  avg # of iterations =  2.7

     total cpu time spent up to now is       39.9 secs

     total energy              =     -93.52728896 Ry
     estimated scf accuracy    <       0.00000004 Ry

     iteration #  9     ecut=    80.00 Ry     beta= 0.40
     Davidson diagonalization with overlap
     ethr =  2.02E-10,  avg # of iterations =  2.0

     total cpu time spent up to now is       41.5 secs

     total energy              =     -93.52728897 Ry
     estimated scf accuracy    <          1.8E-10 Ry

     iteration # 10     ecut=    80.00 Ry     beta= 0.40
     Davidson diagonalization with overlap
     ethr =  8.40E-13,  avg # of iterations =  2.7

     total cpu time spent up to now is       43.0 secs

     total energy              =     -93.52728897 Ry
     estimated scf accuracy    <          1.6E-10 Ry

     iteration # 11     ecut=    80.00 Ry     beta= 0.40
     Davidson diagonalization with overlap
     ethr =  7.84E-13,  avg # of iterations =  2.0

     total cpu time spent up to now is       44.6 secs

     End of self-consistent calculation

          k = 0.0000 0.0000 0.0000 (  2133 PWs)   bands (ev):

   -21.3881  -0.7323  -0.7323  -0.7323   0.1805  11.5656  15.1074  15.1074
    15.1074  16.5551  16.5551  16.5551  20.8907  21.9950  21.9950

          k =-0.0872 0.0872-0.0872 (  2169 PWs)   bands (ev):

   -21.3472  -1.7488  -0.7551  -0.7551   1.2339  10.7926  14.9510  14.9543
    14.9543  16.4607  16.4607  17.1573  21.9709  22.7748  22.7748

          k =-0.1744 0.1744-0.1744 (  2169 PWs)   bands (ev):

   -21.2333  -3.0081  -0.8156  -0.8156   2.5631   9.5825  13.9167  14.2426
    14.2426  16.8921  16.8921  19.2630  24.3276  24.6318  24.6318

          k =-0.2616 0.2616-0.2616 (  2178 PWs)   bands (ev):

   -21.0717  -4.1186  -0.8948  -0.8948   3.6377   8.7440  12.9708  13.3379
    13.3379  17.9691  17.9691  21.6743  27.0112  27.0112  27.0665

          k =-0.3488 0.3488-0.3488 (  2181 PWs)   bands (ev):

   -20.9027  -4.9938  -0.9703  -0.9703   4.2085   8.4665  12.4568  12.5906
    12.5906  19.4905  19.4905  23.3440  28.8824  29.1315  29.1315

          k =-0.4360 0.4360-0.4360 (  2195 PWs)   bands (ev):

   -20.7738  -5.5585  -1.0233  -1.0233   4.3413   8.5052  12.1151  12.1151
    12.4014  21.3124  21.3124  23.3451  26.6899  26.6899  30.6018

          k = 0.5232-0.5232 0.5232 (  2186 PWs)   bands (ev):

   -20.7254  -5.7542  -1.0422  -1.0422   4.3414   8.5404  11.9529  11.9529
    12.4749  22.6818  22.6818  23.0441  25.0546  25.0546  32.0097

          k =-0.0000 0.1744 0.0000 (  2153 PWs)   bands (ev):

   -21.3337  -1.8615  -0.8308  -0.8308   1.4970  10.5962  14.5392  14.7178
    14.7178  16.4512  17.5436  17.5436  21.4808  22.1507  24.1132

          k =-0.0872 0.2616-0.0872 (  2162 PWs)   bands (ev):

   -21.2442  -2.7879  -0.9361  -0.8924   2.5613   9.6541  12.8482  14.3923
    15.0792  16.7044  18.1774  19.0765  22.8100  23.1030  26.1833

          k =-0.1744 0.3488-0.1744 (  2180 PWs)   bands (ev):

   -21.0986  -3.8178  -1.0405  -0.9849   3.6706   8.7965  11.5475  13.7945
    15.0665  16.9487  18.9882  21.2903  25.1247  25.4057  28.4430

          k =-0.2616 0.4360-0.2616 (  2172 PWs)   bands (ev):

   -20.9318  -4.7023  -1.1242  -1.1160   4.4396   8.3500  10.7841  13.0999
    14.5698  18.0687  20.2913  23.2370  27.5811  28.1137  29.0853

          k =-0.3488 0.5232-0.3488 (  2189 PWs)   bands (ev):

   -20.7887  -5.3327  -1.2731  -1.1443   4.7370   8.2016  10.6311  12.5257
    14.2373  19.4661  21.9400  23.7674  26.4415  28.8260  30.1798

          k = 0.6104-0.4360 0.6104 (  2182 PWs)   bands (ev):

   -20.7128  -5.6352  -1.3908  -1.1200   4.7941   8.1374  10.7568  12.1891
    14.1838  20.5786  22.7692  24.0458  25.2265  26.7969  31.7222

          k = 0.5232-0.3488 0.5232 (  2183 PWs)   bands (ev):

   -20.7288  -5.5722  -1.4465  -1.0498   4.8060   8.1774  10.7116  12.1469
    14.3071  21.0179  21.0930  24.8548  25.5675  27.1235  30.9135

          k = 0.4360-0.2616 0.4360 (  2183 PWs)   bands (ev):

   -20.8315  -5.1534  -1.4239  -0.9508   4.7197   8.2922  10.6248  12.4256
    14.6054  19.1073  20.7139  24.0073  27.3325  29.0406  29.7064

          k = 0.3488-0.1744 0.3488 (  2179 PWs)   bands (ev):

   -20.9878  -4.4337  -1.3227  -0.8473   4.2667   8.5136  11.0060  13.0308
    15.1152  17.4971  19.4290  22.8576  26.2604  28.0704  29.2049

          k = 0.2616-0.0872 0.2616 (  2171 PWs)   bands (ev):

   -21.1522  -3.5030  -1.1568  -0.7663   3.3176   9.1038  11.9700  13.9460
    15.6779  16.2680  18.0443  20.9610  23.5308  26.4319  26.7016

          k = 0.1744-0.0000 0.1744 (  2157 PWs)   bands (ev):

   -21.2820  -2.5015  -0.9468  -0.7316   2.1383  10.0218  13.3489  15.0828
    15.4833  15.8082  16.8822  18.9835  22.0303  24.1415  24.4657

          k =-0.0000 0.3488 0.0000 (  2181 PWs)   bands (ev):

   -21.1827  -3.0794  -1.0913  -1.0913   3.1779   9.1043  11.7125  14.4686
    14.4686  19.0613  19.5330  19.5330  22.2934  22.6067  28.1928

          k =-0.0872 0.4360-0.0872 (  2181 PWs)   bands (ev):

   -21.0622  -3.7401  -1.2549  -1.2374   4.0312   8.4346  10.4640  14.3002
    14.7709  19.1003  20.4464  21.5781  23.7576  24.0396  30.0343

          k =-0.1744 0.5232-0.1744 (  2171 PWs)   bands (ev):

   -20.9114  -4.4387  -1.5050  -1.3374   4.8140   8.0114   9.5995  13.8478
    15.2315  18.9579  21.4673  23.4987  25.9239  27.1094  28.8183

          k =-0.2616 0.6104-0.2616 (  2175 PWs)   bands (ev):

   -20.7695  -4.9935  -1.8219  -1.3682   5.3070   7.6812   9.5154  13.3000
    15.5351  19.1884  22.8562  24.3769  26.3526  28.5211  28.6625

          k = 0.6976-0.3488 0.6976 (  2175 PWs)   bands (ev):

   -20.6778  -5.3100  -2.1121  -1.3235   5.6012   7.3525   9.8915  12.8465
    15.8353  19.3401  23.0450  24.6633  25.6934  29.6747  30.9909

          k = 0.6104-0.2616 0.6104 (  2189 PWs)   bands (ev):

   -20.6652  -5.3438  -2.2875  -1.2138   5.8254   7.2703   9.9130  12.5963
    16.3051  19.4551  21.0890  25.6888  27.7003  27.7660  30.3626

          k = 0.5232-0.1744 0.5232 (  2193 PWs)   bands (ev):

   -20.7357  -5.1036  -2.2859  -1.0648   5.8265   7.6392   9.4434  12.6036
    16.7903  19.1881  19.9160  25.7422  26.7330  28.9609  30.1542

          k = 0.4360-0.0872 0.4360 (  2177 PWs)   bands (ev):

   -20.8667  -4.6521  -2.0740  -0.9142   5.3640   8.3010   9.2293  12.8835
    17.1471  17.6485  19.7818  24.5355  26.4252  27.1033  30.7169

          k = 0.3488 0.0000 0.3488 (  2191 PWs)   bands (ev):

   -21.0192  -4.0859  -1.6631  -0.8034   4.4098   8.6545  10.2547  13.3943
    16.6025  16.9805  18.7819  23.4286  23.9165  27.7090  29.0728

          k =-0.0000 0.5232 0.0000 (  2181 PWs)   bands (ev):

   -20.9708  -4.0006  -1.4290  -1.4290   4.3820   7.8310   9.7734  14.6434
    14.6434  22.0726  22.0726  22.1797  23.3220  23.5781  30.1175

          k =-0.0872 0.6104-0.0872 (  2180 PWs)   bands (ev):

   -20.8461  -4.4109  -1.6875  -1.5676   4.6834   7.4392   9.3250  14.6219
    15.0057  21.8110  22.9554  24.2523  24.8017  26.0768  28.4687

          k =-0.1744 0.6976-0.1744 (  2179 PWs)   bands (ev):

   -20.7203  -4.7525  -2.1567  -1.6227   4.9602   7.3910   9.1947  14.2677
    15.4573  21.3875  23.9520  25.2876  26.2288  27.3157  28.0416

          k = 0.7847-0.2616 0.7847 (  2188 PWs)   bands (ev):

   -20.6288  -4.9196  -2.7098  -1.5830   5.2739   7.4058   9.4325  13.7865
    15.7986  20.8039  23.5258  25.5036  26.2561  29.4660  30.0559

          k = 0.6976-0.1744 0.6976 (  2196 PWs)   bands (ev):

   -20.5990  -4.9056  -3.1328  -1.4568   5.7657   7.3035   9.5575  13.3481
    16.3201  20.1880  21.5526  26.3597  28.2503  29.6803  30.2753

          k = 0.6104-0.0872 0.6104 (  2188 PWs)   bands (ev):

   -20.6401  -4.8162  -3.2000  -1.2717   6.5357   7.0721   9.0983  13.0381
    17.4449  19.6884  19.7757  26.4901  27.7834  29.2595  30.5695

          k = 0.5232 0.0000 0.5232 (  2181 PWs)   bands (ev):

   -20.7391  -4.7555  -2.7942  -1.0723   6.4604   7.6039   8.5747  12.8842
    18.4322  18.8047  18.8877  25.6133  26.1922  29.5169  30.2616

          k =-0.0000 0.6976 0.0000 (  2181 PWs)   bands (ev):

   -20.7520  -4.6046  -1.7481  -1.7481   4.2674   6.8954   9.5964  15.1320
    15.1320  24.1982  24.9245  24.9245  25.3730  25.6458  27.7485

          k =-0.0872 0.7847-0.0872 (  2181 PWs)   bands (ev):

   -20.6535  -4.7867  -2.0763  -1.8397   4.1071   6.7539   9.8202  15.1707
    15.4449  24.3192  24.7825  25.9049  26.4997  27.2760  27.5447

          k = 0.8719-0.1744 0.8719 (  2179 PWs)   bands (ev):

   -20.5781  -4.7872  -2.7512  -1.8244   4.3217   7.0586   9.8981  14.8034
    15.5531  23.2467  24.1752  26.2953  26.5699  28.8916  29.7366

          k = 0.7847-0.0872 0.7847 (  2184 PWs)   bands (ev):

   -20.5476  -4.5352  -3.5432  -1.7052   4.8121   7.5208   9.7911  14.2342
    15.5548  22.2915  22.4101  27.3648  28.1110  29.5415  30.2778

          k = 0.6976 0.0000 0.6976 (  2185 PWs)   bands (ev):

   -20.5706  -4.3257  -3.9369  -1.5060   5.5578   7.6869   9.3623  13.6140
    16.1608  20.8750  21.2243  27.3730  28.6475  29.2693  30.1102

          k =-0.0000 0.8719 0.0000 (  2176 PWs)   bands (ev):

   -20.5872  -4.9237  -1.9710  -1.9710   3.4942   6.3275  10.3662  15.6908
    15.6908  25.0132  25.6993  25.6993  27.6384  28.1913  28.1913

          k = 0.9591-0.0872 0.9591 (  2188 PWs)   bands (ev):

   -20.5400  -4.9322  -2.3150  -1.9913   3.4989   6.4059  10.5336  15.6263
    15.7572  24.8226  24.8319  25.6850  28.0395  29.3747  29.4538

          k = 0.8719 0.0000 0.8719 (  2189 PWs)   bands (ev):

   -20.5256  -4.7363  -3.0200  -1.8968   4.0169   6.9426  10.3242  15.0645
    15.5077  23.5824  23.8456  26.8889  28.1712  29.8715  30.0280

          k = 0.0000-1.0463-0.0000 (  2200 PWs)   bands (ev):

   -20.5258  -5.0188  -2.0506  -2.0506   3.1442   6.1374  10.7599  15.9520
    15.9520  25.1155  25.1155  25.3726  28.8973  29.7334  29.7334

          k =-0.1744 0.3488 0.0000 (  2176 PWs)   bands (ev):

   -21.1391  -3.4504  -1.2519  -0.9052   3.5061   8.9670  11.3496  14.1996
    15.0888  17.7412  18.4923  21.3925  22.7053  24.9418  28.3120

          k =-0.2616 0.4360-0.0872 (  2178 PWs)   bands (ev):

   -20.9906  -4.2020  -1.5630  -0.9752   4.5089   8.4273  10.1082  13.5609
    15.6375  17.9317  19.7309  23.0952  24.8641  27.2288  28.7692

          k =-0.3488 0.5232-0.1744 (  2178 PWs)   bands (ev):

   -20.8360  -4.8589  -1.7961  -1.0927   5.1983   8.0452   9.6090  12.9741
    15.8573  18.4762  20.9923  24.4217  27.0211  27.7330  29.1365

          k = 0.6104-0.4360 0.7847 (  2182 PWs)   bands (ev):

   -20.7186  -5.3033  -1.9357  -1.1986   5.4785   7.6451   9.8939  12.5895
    15.8001  19.2727  21.6636  25.4404  25.8561  28.9612  30.0950

          k = 0.5232-0.3488 0.6976 (  2180 PWs)   bands (ev):

   -20.6747  -5.4604  -1.9814  -1.2409   5.5409   7.4712  10.1368  12.4560
    15.7719  19.4708  22.1418  24.7396  26.9318  27.5845  31.6695

          k =-0.1744 0.5232 0.0000 (  2174 PWs)   bands (ev):

   -20.9393  -4.1968  -1.6429  -1.2855   4.7003   7.9760   9.5043  14.1729
    15.0986  20.4340  20.6640  23.7020  24.2690  26.0851  28.6012

          k =-0.2616 0.6104-0.0872 (  2181 PWs)   bands (ev):

   -20.8008  -4.6354  -2.0424  -1.4141   5.3048   7.7717   8.9116  13.7624
    15.7311  20.2758  21.9048  24.8021  26.6063  27.1137  28.6542

          k = 0.6976-0.3488 0.8719 (  2187 PWs)   bands (ev):

   -20.6841  -4.9483  -2.4211  -1.5203   5.7205   7.4344   9.1500  13.3107
    16.3003  19.7924  22.6525  25.9158  26.1346  27.9482  30.1597

          k = 0.6104-0.2616 0.7847 (  2195 PWs)   bands (ev):

   -20.6239  -5.0816  -2.7072  -1.5208   6.1212   7.0204   9.5847  12.9673
    16.8496  19.0247  22.6013  25.2247  27.6800  29.7411  30.6361

          k = 0.5232-0.1744 0.6976 (  2192 PWs)   bands (ev):

   -20.6389  -5.0308  -2.7997  -1.4122   6.6367   6.7319   9.3999  12.8605
    17.5262  18.5099  21.4596  26.1034  28.0040  28.6408  30.2708

          k = 0.4360-0.0872 0.6104 (  2188 PWs)   bands (ev):

   -20.7244  -4.8377  -2.6212  -1.2381   6.2544   7.5385   8.7494  12.9733
    17.2805  19.0473  20.5088  26.0512  26.1226  28.7846  29.9580

          k = 0.3488 0.0000 0.5232 (  2177 PWs)   bands (ev):

   -20.8540  -4.5529  -2.1710  -1.0672   5.5083   8.2896   8.7362  13.2301
    16.4451  19.2605  19.8185  24.5921  26.4078  26.7816  30.1148

          k =-0.1744 0.6976 0.0000 (  2191 PWs)   bands (ev):

   -20.7342  -4.6489  -2.0080  -1.7276   4.7063   7.2105   9.2680  14.5236
    15.4951  22.7681  23.5382  24.8262  26.7819  27.1852  28.0896

          k = 0.7847-0.2616 0.9591 (  2182 PWs)   bands (ev):

   -20.6337  -4.7606  -2.5297  -1.8666   4.9028   7.3605   9.2887  14.0666
    16.0580  21.8901  24.2733  26.0885  26.3505  27.1822  29.8079

          k = 0.6976-0.1744 0.8719 (  2193 PWs)   bands (ev):

   -20.5731  -4.6874  -3.1678  -1.8525   5.2518   7.5944   9.4283  13.5031
    16.4150  20.7123  23.8265  25.9726  27.7332  29.1330  30.5733

          k = 0.6104-0.0872 0.7847 (  2194 PWs)   bands (ev):

   -20.5706  -4.5298  -3.5938  -1.7043   5.7799   7.6470   9.2890  13.1480
    16.9041  19.6264  22.5964  26.9163  28.3756  29.2876  30.0378

          k = 0.5232 0.0000 0.6976 (  2182 PWs)   bands (ev):

   -20.6267  -4.6513  -3.3368  -1.4738   6.4534   7.4368   8.7432  13.0469
    17.9952  18.4850  21.4251  26.3667  27.7114  28.6134  31.5200

          k = 0.8719-0.1744 1.0463 (  2186 PWs)   bands (ev):

   -20.5806  -4.8384  -2.2609  -2.1033   4.0040   6.7331  10.0833  14.8455
    16.0082  23.6747  25.7028  25.8385  26.9962  27.2789  30.0531

          k = 0.7847-0.0872 0.9591 (  2195 PWs)   bands (ev):

   -20.5361  -4.6895  -2.9202  -2.1322   4.3658   7.1488  10.0666  14.0997
    16.3496  22.3333  25.0682  26.6891  27.4420  28.9529  30.3010

          k = 0.6976 0.0000 0.8719 (  2196 PWs)   bands (ev):

   -20.5326  -4.3279  -3.7064  -1.9699   4.9794   7.6835   9.7327  13.4470
    16.4447  21.0246  23.9751  27.8494  27.9657  28.7887  30.4584

          k =-0.1744-1.0463-0.0000 (  2198 PWs)   bands (ev):

   -20.5237  -4.8767  -2.3507  -2.2584   3.6848   6.5713  10.5266  14.9377
    16.2557  23.6590  25.2845  26.0287  28.7470  29.0864  29.6422

          k = 0.6976-0.3488 1.0463 (  2202 PWs)   bands (ev):

   -20.6873  -4.7154  -2.6296  -1.6243   5.7628   7.9490   8.3406  13.4479
    16.6084  20.4402  22.2506  25.8471  26.2872  28.0551  29.8933

          k = 0.6104-0.2616 0.9591 (  2195 PWs)   bands (ev):

   -20.6022  -4.6846  -3.1010  -1.8519   5.9745   7.7493   8.7840  13.0396
    17.4706  19.2101  23.2314  26.4122  27.4061  27.9675  30.9824

          k = 0.5232-0.1744 0.8719 (  2202 PWs)   bands (ev):

   -20.5706  -4.6427  -3.2964  -1.9461   6.0280   7.5878   9.2043  12.7938
    18.1223  18.3505  23.8207  25.6641  28.7566  29.5223  30.1212

          k = 0.6976-0.1744 1.0463 (  2185 PWs)   bands (ev):

   -20.5644  -4.5993  -2.9400  -2.2725   5.1400   7.7064   9.2677  13.3274
    16.9892  20.7989  25.5274  26.4222  26.8023  27.4992  30.7590

          k = 0.6104-0.0872 0.9591 (  2196 PWs)   bands (ev):

   -20.5322  -4.2700  -3.5247  -2.4032   5.4647   8.1358   9.2319  12.5920
    17.6827  19.7370  25.5761  26.4245  27.5936  29.1585  29.9380

          k = 0.5232 0.0000 0.8719 (  2195 PWs)   bands (ev):

   -20.5462  -4.2290  -3.6959  -2.2107   5.7850   8.3180   8.8102  12.5818
    18.2897  18.6785  24.5678  27.1001  27.6642  28.1271  30.5771

          k =-0.3488-1.0463-0.0000 (  2188 PWs)   bands (ev):

   -20.5194  -4.4627  -3.0490  -2.6075   4.8602   7.6187   9.8537  13.0505
    17.1947  21.0863  25.7703  26.8937  27.9195  28.9118  29.9980

          k =-0.5232-1.0463-0.0000 (  2208 PWs)   bands (ev):

   -20.5172  -3.8206  -3.8206  -2.7587   5.5668   8.8247   8.8247  12.0573
    18.8180  18.8180  26.2827  27.1388  27.2639  29.5694  29.6203

     the Fermi energy is    22.2167 ev

!    total energy              =     -93.52728897 Ry
     estimated scf accuracy    <          8.4E-14 Ry
     smearing contrib. (-TS)   =       0.00013756 Ry
     internal energy E=F+TS    =     -93.52742653 Ry

     The total energy is F=E-TS. E is the sum of the following terms:
     one-electron contribution =      23.33324376 Ry
     hartree contribution      =       5.59300761 Ry
     xc contribution           =     -27.53002924 Ry
     ewald contribution        =     -94.92364866 Ry

     convergence has been achieved in  11 iterations

     Forces acting on atoms (cartesian axes, Ry/au):

     atom    1 type  1   force =     0.00000000    0.00000000    0.00000000
     atom    2 type  2   force =    -0.00000000    0.00000000    0.00000000
     atom    3 type  2   force =     0.00000000   -0.00000000    0.00000000
     atom    4 type  2   force =     0.01173704    0.01173704    0.01173704
     atom    5 type  2   force =    -0.01173704   -0.01173704   -0.01173704
     atom    6 type  2   force =    -0.01173704    0.01173704    0.01173704
     atom    7 type  2   force =     0.01173704   -0.01173704   -0.01173704
     atom    8 type  2   force =    -0.01173704   -0.01173704    0.01173704
     atom    9 type  2   force =     0.01173704    0.01173704   -0.01173704
     atom   10 type  2   force =     0.01173704   -0.01173704    0.01173704
     atom   11 type  2   force =    -0.01173704    0.01173704   -0.01173704

     Total force =     0.057499     Total SCF correction =     0.000000


     Computing stress (Cartesian axis) and pressure

          total   stress  (Ry/bohr**3)                   (kbar)     P=     3407.06
   0.02316075  -0.00000000  -0.00000000         3407.06       -0.00       -0.00
  -0.00000000   0.02316075   0.00000000           -0.00     3407.06        0.00
  -0.00000000   0.00000000   0.02316075           -0.00        0.00     3407.06

     Energy error            =      3.8E-02
     Gradient error          =      1.2E-02
     Cell gradient error     =      6.2E-03


     number of scf cycles    =   2
     number of bfgs steps    =   1

     enthalpy old            =     -90.8832300642 Ry
     enthalpy new            =     -90.8448892116 Ry

     CASE: enthalpy_new > enthalpy_old

     new trust radius        =       0.0323399413 bohr
     new conv_thr            =            1.0E-12 Ry

     new unit-cell volume =    174.21738 a.u.^3 (    25.81635 Ang^3 )
     density =      6.36690 g/cm^3

CELL_PARAMETERS (alat=  8.97619911)
  -0.493849578  -0.000000000   0.493849578
   0.000000000   0.493849578   0.493849578
  -0.493849578   0.493849578  -0.000000000

ATOMIC_POSITIONS (crystal)
Y            -0.0000000000        0.0000000000        0.0000000000
H             0.7500000000        0.7500000000        0.7500000000
H             0.2500000000        0.2500000000        0.2500000000
H             0.6245358820        0.1263923539        0.6245358820
H             0.3754641180        0.8736076461        0.3754641180
H             0.3754641180        0.3754641180        0.3754641180
H             0.6245358820        0.6245358820        0.6245358820
H             0.1263923539        0.6245358820        0.6245358820
H             0.8736076461        0.3754641180        0.3754641180
H             0.3754641180        0.3754641180        0.8736076461
H             0.6245358820        0.6245358820        0.1263923539



     Writing output data file ./tmp/yh10.save/
     NEW-OLD atomic charge density approx. for the potential
     extrapolated charge   22.97398, renormalised to   21.00000

     total cpu time spent up to now is       47.5 secs

     Self-consistent Calculation

     iteration #  1     ecut=    80.00 Ry     beta= 0.40
     Davidson diagonalization with overlap
     ethr =  1.00E-06,  avg # of iterations =  8.2

     total cpu time spent up to now is       51.2 secs

     total energy              =     -93.79086659 Ry
     estimated scf accuracy    <       0.03605135 Ry

     iteration #  2     ecut=    80.00 Ry     beta= 0.40
     Davidson diagonalization with overlap
     ethr =  1.72E-04,  avg # of iterations =  3.8

     total cpu time spent up to now is       53.2 secs

     total energy              =     -93.85392519 Ry
     estimated scf accuracy    <       0.02357643 Ry

     iteration #  3     ecut=    80.00 Ry     beta= 0.40
     Davidson diagonalization with overlap
     ethr =  1.12E-04,  avg # of iterations =  1.1

     total cpu time spent up to now is       54.5 secs

     total energy              =     -93.84999894 Ry
     estimated scf accuracy    <       0.00868610 Ry

     iteration #  4     ecut=    80.00 Ry     beta= 0.40
     Davidson diagonalization with overlap
     ethr =  4.14E-05,  avg # of iterations =  2.1

     total cpu time spent up to now is       56.0 secs

     total energy              =     -93.85076329 Ry
     estimated scf accuracy    <       0.00056444 Ry

     iteration #  5     ecut=    80.00 Ry     beta= 0.40
     Davidson diagonalization with overlap
     ethr =  2.69E-06,  avg # of iterations =  3.5

     total cpu time spent up to now is       57.9 secs

     total energy              =     -93.85091718 Ry
     estimated scf accuracy    <       0.00044602 Ry

     iteration #  6     ecut=    80.00 Ry     beta= 0.40
     Davidson diagonalization with overlap
     ethr =  2.12E-06,  avg # of iterations =  2.4

     total cpu time spent up to now is       59.5 secs

     total energy              =     -93.85099729 Ry
     estimated scf accuracy    <       0.00000304 Ry

     iteration #  7     ecut=    80.00 Ry     beta= 0.40
     Davidson diagonalization with overlap
     ethr =  1.45E-08,  avg # of iterations =  3.2

     total cpu time spent up to now is       61.3 secs

     total energy              =     -93.85099750 Ry
     estimated scf accuracy    <       0.00000815 Ry

     iteration #  8     ecut=    80.00 Ry     beta= 0.40
     Davidson diagonalization with overlap
     ethr =  1.45E-08,  avg # of iterations =  2.1

     total cpu time spent up to now is       63.0 secs

     total energy              =     -93.85099908 Ry
     estimated scf accuracy    <       0.00000004 Ry

     iteration #  9     ecut=    80.00 Ry     beta= 0.40
     Davidson diagonalization with overlap
     ethr =  1.81E-10,  avg # of iterations =  2.8

     total cpu time spent up to now is       64.5 secs

     total energy              =     -93.85099908 Ry
     estimated scf accuracy    <       0.00000002 Ry

     iteration # 10     ecut=    80.00 Ry     beta= 0.40
     Davidson diagonalization with overlap
     ethr =  8.58E-11,  avg # of iterations =  2.0

     total cpu time spent up to now is       66.1 secs

     total energy              =     -93.85099908 Ry
     estimated scf accuracy    <          2.7E-11 Ry

     iteration # 11     ecut=    80.00 Ry     beta= 0.40
     Davidson diagonalization with overlap
     ethr =  1.31E-13,  avg # of iterations =  3.7

     total cpu time spent up to now is       67.9 secs

     total energy              =     -93.85099908 Ry
     estimated scf accuracy    <          2.9E-11 Ry

     iteration # 12     ecut=    80.00 Ry     beta= 0.40
     Davidson diagonalization with overlap
     ethr =  1.31E-13,  avg # of iterations =  2.0

     total cpu time spent up to now is       69.4 secs

     End of self-consistent calculation

          k = 0.0000 0.0000 0.0000 (  2133 PWs)   bands (ev):

   -23.1503  -2.8030  -2.8030  -2.8030  -1.0339   9.9058  13.5585  13.5585
    13.5585  14.8523  14.8523  14.8523  19.1019  20.0745  20.0745

          k =-0.0844 0.0844-0.0844 (  2169 PWs)   bands (ev):

   -23.1228  -3.4383  -2.8203  -2.8203  -0.3336   9.2325  13.3215  13.3895
    13.3895  14.8108  14.8108  15.4543  20.0765  20.7694  20.7694

          k =-0.1687 0.1687-0.1687 (  2169 PWs)   bands (ev):

   -23.0467  -4.4358  -2.8667  -2.8667   0.8321   8.0799  12.3694  12.7255
    12.7255  15.2321  15.2321  17.3351  22.2415  22.4466  22.4466

          k =-0.2531 0.2531-0.2531 (  2178 PWs)   bands (ev):

   -22.9401  -5.3420  -2.9282  -2.9282   1.9186   7.1410  11.4916  11.9064
    11.9064  16.2068  16.2068  19.4851  24.6103  24.6103  24.7374

          k =-0.3375 0.3375-0.3375 (  2181 PWs)   bands (ev):

   -22.8303  -6.0517  -2.9874  -2.9874   2.6774   6.6197  10.9645  11.2300
    11.2300  17.5778  17.5778  20.9408  26.2189  26.4643  26.4643

          k =-0.4219 0.4219-0.4219 (  2195 PWs)   bands (ev):

   -22.7478  -6.5044  -3.0294  -3.0294   3.0147   6.4698  10.7994  10.7994
    10.8007  19.2073  19.2073  20.9310  24.2462  24.2462  27.7196

          k = 0.5062-0.5062 0.5062 (  2186 PWs)   bands (ev):

   -22.7171  -6.6602  -3.0445  -3.0445   3.0877   6.4592  10.6524  10.6524
    10.7997  20.3798  20.3798  20.6728  22.8299  22.8299  28.9306

          k =-0.0000 0.1687 0.0000 (  2153 PWs)   bands (ev):

   -23.1137  -3.5162  -2.8745  -2.8745  -0.1364   9.0660  13.0364  13.1247
    13.1247  14.7458  15.8136  15.8136  19.6410  20.2173  21.9837

          k =-0.0844 0.2531-0.0844 (  2162 PWs)   bands (ev):

   -23.0539  -4.2564  -2.9524  -2.9187   0.7897   8.1875  11.4473  12.7911
    13.4544  15.0064  16.4275  17.2076  20.8455  21.0699  23.8733

          k =-0.1687 0.3375-0.1687 (  2180 PWs)   bands (ev):

   -22.9575  -5.0983  -3.0316  -2.9858   1.8576   7.2839  10.2269  12.2468
    13.4658  15.2329  17.1666  19.1922  22.8977  23.2137  25.9145

          k =-0.2531 0.4219-0.2531 (  2172 PWs)   bands (ev):

   -22.8487  -5.8168  -3.0909  -3.0870   2.7433   6.6581   9.4603  11.6318
    13.0322  16.2295  18.3272  20.9171  25.1235  25.5859  26.3960

          k =-0.3375 0.5062-0.3375 (  2189 PWs)   bands (ev):

   -22.7568  -6.3222  -3.1954  -3.1154   3.2497   6.3587   9.1546  11.1285
    12.7177  17.4716  19.7819  21.3939  24.0254  26.1527  27.3520

          k = 0.5906-0.4219 0.5906 (  2182 PWs)   bands (ev):

   -22.7086  -6.5620  -3.2815  -3.1000   3.4229   6.2696   9.1233  10.8410
    12.6405  18.4402  20.4741  21.7069  22.9769  24.3037  28.6941

          k = 0.5062-0.3375 0.5062 (  2183 PWs)   bands (ev):

   -22.7188  -6.5118  -3.3219  -3.0491   3.4054   6.3004   9.1158  10.8210
    12.7471  18.8780  18.9497  22.4441  23.2134  24.6320  28.0387

          k = 0.4219-0.2531 0.4219 (  2183 PWs)   bands (ev):

   -22.7842  -6.1782  -3.3045  -2.9751   3.1506   6.4628   9.2082  11.0920
    13.0269  17.2277  18.5697  21.6702  24.7995  26.4071  26.9246

          k = 0.3375-0.1687 0.3375 (  2179 PWs)   bands (ev):

   -22.8851  -5.5984  -3.2297  -2.8966   2.5004   6.8720   9.6710  11.6586
    13.4828  15.7643  17.4597  20.6384  23.9340  25.4987  26.6055

          k = 0.2531-0.0844 0.2531 (  2171 PWs)   bands (ev):

   -22.9929  -4.8398  -3.1088  -2.8341   1.5052   7.6008  10.5834  12.5050
    13.9725  14.6388  16.2275  18.9433  21.4761  24.1351  24.3281

          k = 0.1687-0.0000 0.1687 (  2157 PWs)   bands (ev):

   -23.0791  -4.0246  -2.9576  -2.8056   0.4236   8.5214  11.8634  13.5478
    13.9081  14.0712  15.2094  17.1333  20.1321  22.0341  22.2943

          k =-0.0000 0.3375 0.0000 (  2181 PWs)   bands (ev):

   -23.0128  -4.4967  -3.0657  -3.0657   1.3297   7.7166  10.4063  12.7965
    12.7965  17.1330  17.6790  17.6790  20.3996  20.6344  25.7050

          k =-0.0844 0.4219-0.0844 (  2181 PWs)   bands (ev):

   -22.9332  -5.0422  -3.1834  -3.1750   2.1592   7.0551   9.1879  12.6152
    13.0587  17.2404  18.5284  19.5109  21.6668  21.9758  27.2877

          k =-0.1687 0.5062-0.1687 (  2171 PWs)   bands (ev):

   -22.8347  -5.6102  -3.3604  -3.2518   3.0157   6.5235   8.2807  12.2162
    13.5079  17.0873  19.4332  21.2501  23.6239  24.7420  26.1759

          k =-0.2531 0.5906-0.2531 (  2175 PWs)   bands (ev):

   -22.7434  -6.0516  -3.5887  -3.2778   3.6838   6.1168   7.9468  11.7473
    13.8388  17.2261  20.6324  22.0247  23.9444  25.9786  26.0141

          k = 0.6750-0.3375 0.6750 (  2175 PWs)   bands (ev):

   -22.6852  -6.2975  -3.8028  -3.2473   4.1019   5.8026   8.0243  11.3675
    14.1521  17.3211  20.7626  22.3138  23.3775  26.8830  28.1885

          k = 0.5906-0.2531 0.5906 (  2189 PWs)   bands (ev):

   -22.6773  -6.3205  -3.9349  -3.1677   4.2779   5.7618   7.9912  11.1740
    14.5861  17.4099  19.0381  23.2759  25.1219  25.1426  27.6041

          k = 0.5062-0.1687 0.5062 (  2193 PWs)   bands (ev):

   -22.7222  -6.1303  -3.9346  -3.0583   4.0833   6.1415   7.7687  11.2158
    15.0212  17.3183  17.7750  23.3836  24.2707  26.2360  27.3638

          k = 0.4219-0.0844 0.4219 (  2177 PWs)   bands (ev):

   -22.8063  -5.7721  -3.7770  -2.9470   3.4524   6.6814   7.9486  11.5055
    15.3240  15.9127  17.6569  22.3363  24.0079  24.6007  27.8163

          k = 0.3375 0.0000 0.3375 (  2191 PWs)   bands (ev):

   -22.9054  -5.3158  -3.4747  -2.8641   2.4956   7.1066   8.9863  11.9998
    14.9482  15.1419  16.8242  21.4026  21.6655  25.1686  26.4872

          k =-0.0000 0.5062 0.0000 (  2181 PWs)   bands (ev):

   -22.8729  -5.2649  -3.3175  -3.3175   2.6102   6.5461   8.3886  12.8553
    12.8553  20.0135  20.0239  20.0239  21.2863  21.5966  27.2636

          k =-0.0844 0.5906-0.0844 (  2180 PWs)   bands (ev):

   -22.7916  -5.6025  -3.5039  -3.4227   3.1173   6.1294   7.7344  12.8157
    13.1591  19.7622  20.8350  22.0070  22.6029  23.8024  25.7682

          k =-0.1687 0.6750-0.1687 (  2179 PWs)   bands (ev):

   -22.7108  -5.8727  -3.8395  -3.4662   3.6141   5.9209   7.3955  12.5176
    13.5795  19.3333  21.6622  22.9095  23.8201  24.8969  25.4806

          k = 0.7593-0.2531 0.7593 (  2188 PWs)   bands (ev):

   -22.6526  -5.9931  -4.2502  -3.4384   4.0895   5.7342   7.4491  12.1212
    13.9463  18.7599  21.2459  23.1023  23.8584  26.8188  27.3425

          k = 0.6750-0.1687 0.6750 (  2196 PWs)   bands (ev):

   -22.6340  -5.9656  -4.5794  -3.3457   4.6607   5.4780   7.4729  11.7694
    14.4949  18.1751  19.4919  23.8828  25.6171  26.9277  27.4030

          k = 0.5906-0.0844 0.5906 (  2188 PWs)   bands (ev):

   -22.6604  -5.8870  -4.6379  -3.2092   5.1102   5.4553   7.1200  11.5398
    15.5314  17.6758  17.8797  24.1177  25.1933  26.4359  27.7169

          k = 0.5062 0.0000 0.5062 (  2181 PWs)   bands (ev):

   -22.7238  -5.8465  -4.3234  -3.0629   4.4380   6.5149   6.7652  11.4564
    16.6454  16.8150  16.8406  23.3598  23.7848  26.7557  27.3573

          k =-0.0000 0.6750 0.0000 (  2181 PWs)   bands (ev):

   -22.7304  -5.7707  -3.5592  -3.5592   3.0572   5.6813   7.6317  13.2053
    13.2053  22.0788  22.6092  22.6092  23.2175  23.2596  25.1594

          k =-0.0844 0.7593-0.0844 (  2181 PWs)   bands (ev):

   -22.6672  -5.9197  -3.7917  -3.6298   3.1024   5.4916   7.6286  13.2289
    13.4615  22.0476  22.5194  23.4641  24.0494  24.8544  25.1172

          k = 0.8437-0.1687 0.8437 (  2179 PWs)   bands (ev):

   -22.6193  -5.9139  -4.2748  -3.6194   3.3778   5.5976   7.6276  12.9326
    13.5902  21.0207  21.8747  23.8929  24.1193  26.2944  27.1097

          k = 0.7593-0.0844 0.7593 (  2184 PWs)   bands (ev):

   -22.6004  -5.7002  -4.8743  -3.5304   3.8703   5.7869   7.5360  12.4747
    13.7009  20.1124  20.3000  24.8261  25.4729  26.8422  27.4587

          k = 0.6750 0.0000 0.6750 (  2185 PWs)   bands (ev):

   -22.6155  -5.4802  -5.2276  -3.3820   4.5749   5.7502   7.2238  11.9834
    14.3412  18.9013  19.0990  24.9917  25.9055  26.4094  27.2385

          k =-0.0000 0.8437 0.0000 (  2176 PWs)   bands (ev):

   -22.6245  -6.0390  -3.7302  -3.7302   2.7067   5.1551   7.9503  13.6333
    13.6333  22.8072  23.2410  23.2410  25.3442  25.6531  25.6531

          k = 0.9281-0.0844 0.9281 (  2188 PWs)   bands (ev):

   -22.5945  -6.0462  -3.9661  -3.7463   2.7357   5.1681   8.0519  13.5812
    13.6922  22.4694  22.4795  23.3837  25.5376  26.3703  26.6923

          k = 0.8437 0.0000 0.8437 (  2189 PWs)   bands (ev):

   -22.5857  -5.8838  -4.4680  -3.6748   3.1721   5.4908   7.8981  13.1362
    13.5427  21.3741  21.5483  24.4135  25.5770  26.7832  27.2711

          k = 0.0000-1.0125-0.0000 (  2200 PWs)   bands (ev):

   -22.5853  -6.1196  -3.7916  -3.7916   2.4742   4.9788   8.2111  13.8348
    13.8348  22.7444  22.7444  23.1244  25.8751  26.9947  26.9947

          k =-0.1687 0.3375 0.0000 (  2176 PWs)   bands (ev):

   -22.9841  -4.7991  -3.1788  -2.9322   1.6464   7.5206  10.0374  12.6402
    13.4137  15.9465  16.6835  19.3475  20.7497  22.7640  25.8041

          k =-0.2531 0.4219-0.0844 (  2178 PWs)   bands (ev):

   -22.8866  -5.4132  -3.4035  -2.9857   2.6272   6.9030   8.8497  12.0590
    13.9268  16.1359  17.7548  20.9617  22.6356  24.8187  26.1119

          k =-0.3375 0.5062-0.1687 (  2178 PWs)   bands (ev):

   -22.7865  -5.9416  -3.5729  -3.0732   3.4352   6.4230   8.2250  11.5208
    14.1654  16.5977  18.8600  22.1364  24.5463  25.2031  26.4460

          k = 0.5906-0.4219 0.7593 (  2182 PWs)   bands (ev):

   -22.7115  -6.2934  -3.6748  -3.1523   3.8928   6.0501   8.1817  11.1667
    14.1422  17.2561  19.4970  23.0634  23.4399  26.3064  27.3125

          k = 0.5062-0.3375 0.6750 (  2180 PWs)   bands (ev):

   -22.6836  -6.4166  -3.7083  -3.1840   4.0288   5.8959   8.2711  11.0439
    14.1215  17.4185  19.9529  22.4323  24.4384  24.9749  28.6619

          k =-0.1687 0.5062 0.0000 (  2174 PWs)   bands (ev):

   -22.8526  -5.4187  -3.4679  -3.2104   2.8752   6.5861   8.1805  12.4849
    13.3223  18.4597  18.6793  21.6502  21.9859  23.8272  25.9091

          k =-0.2531 0.5906-0.0844 (  2181 PWs)   bands (ev):

   -22.7629  -5.7708  -3.7594  -3.3027   3.6092   6.2748   7.4536  12.1080
    13.9128  18.2843  19.7678  22.5781  24.1818  24.5836  26.0250

          k = 0.6750-0.3375 0.8437 (  2187 PWs)   bands (ev):

   -22.6883  -6.0125  -4.0393  -3.3797   4.2052   5.8883   7.3811  11.7072
    14.4754  17.7882  20.4478  23.5721  23.6527  25.4278  27.3982

          k = 0.5906-0.2531 0.7593 (  2195 PWs)   bands (ev):

   -22.6502  -6.1088  -4.2562  -3.3803   4.7060   5.4451   7.5818  11.4209
    15.0327  17.0693  20.4102  22.8901  25.0829  26.9397  27.8288

          k = 0.5062-0.1687 0.6750 (  2192 PWs)   bands (ev):

   -22.6598  -6.0654  -4.3278  -3.3017   4.8740   5.4576   7.4355  11.3465
    15.6848  16.5583  19.3906  23.6845  25.3535  26.0395  27.4084

          k = 0.4219-0.0844 0.5906 (  2188 PWs)   bands (ev):

   -22.7143  -5.9170  -4.1914  -3.1760   4.3710   6.2079   7.0821  11.4749
    15.4447  17.0474  18.4761  23.6825  23.7830  26.0248  27.2093

          k = 0.3375 0.0000 0.5062 (  2177 PWs)   bands (ev):

   -22.7977  -5.6952  -3.8516  -3.0532   3.5657   6.6772   7.5391  11.7436
    14.6642  17.3621  17.7358  22.4353  23.9818  24.2877  27.4870

          k =-0.1687 0.6750 0.0000 (  2191 PWs)   bands (ev):

   -22.7193  -5.7979  -3.7433  -3.5326   3.3942   5.8687   7.4034  12.6885
    13.5836  20.5916  21.3289  22.6476  24.3337  24.5872  25.5153

          k = 0.7593-0.2531 0.9281 (  2182 PWs)   bands (ev):

   -22.6550  -5.8820  -4.1225  -3.6288   3.7350   5.8540   7.2643  12.2753
    14.1118  19.7444  21.9841  23.7129  23.9129  24.7252  27.1197

          k = 0.6750-0.1687 0.8437 (  2193 PWs)   bands (ev):

   -22.6168  -5.8093  -4.6018  -3.6180   4.1480   5.8584   7.3288  11.8127
    14.5045  18.6511  21.5763  23.5748  25.1204  26.5031  27.6702

          k = 0.5906-0.0844 0.7593 (  2194 PWs)   bands (ev):

   -22.6155  -5.6606  -4.9452  -3.5098   4.6742   5.7661   7.2006  11.5429
    15.0356  17.6304  20.4599  24.4343  25.7748  26.4895  27.1877

          k = 0.5062 0.0000 0.6750 (  2182 PWs)   bands (ev):

   -22.6515  -5.7554  -4.7480  -3.3436   5.0295   5.7768   6.8170  11.4831
    16.0545  16.5640  19.3706  24.0640  25.0889  25.8749  28.5125

          k = 0.8437-0.1687 1.0125 (  2186 PWs)   bands (ev):

   -22.6206  -5.9634  -3.9369  -3.8005   3.0913   5.4229   7.7490  12.9098
    13.9658  21.3979  23.3658  23.3943  24.5408  24.8843  27.1362

          k = 0.7593-0.0844 0.9281 (  2195 PWs)   bands (ev):

   -22.5925  -5.8407  -4.4036  -3.8217   3.4109   5.6554   7.7201  12.2814
    14.3182  20.1580  22.7095  24.2220  24.9284  26.3405  27.2520

          k = 0.6750 0.0000 0.8437 (  2196 PWs)   bands (ev):

   -22.5907  -5.5466  -4.9946  -3.7028   3.9606   5.9378   7.4778  11.7684
    14.5101  18.9354  21.7201  25.2454  25.2887  26.2868  27.4776

          k =-0.1687-1.0125-0.0000 (  2198 PWs)   bands (ev):

   -22.5842  -6.0008  -4.0061  -3.9086   2.8727   5.2720   8.0436  12.9797
    14.1533  21.3984  22.9026  23.6670  26.1771  26.3987  26.5317

          k = 0.6750-0.3375 1.0125 (  2202 PWs)   bands (ev):

   -22.6898  -5.8303  -4.2017  -3.4445   4.2223   6.3175   6.7280  11.7755
    14.7171  18.3453  20.1448  23.5690  23.8829  25.3689  27.1562

          k = 0.5906-0.2531 0.9281 (  2195 PWs)   bands (ev):

   -22.6356  -5.7952  -4.5648  -3.6016   4.6256   6.0177   6.8937  11.3969
    15.5376  17.2225  21.0466  23.9888  24.9043  25.3448  28.0304

          k = 0.5062-0.1687 0.8437 (  2202 PWs)   bands (ev):

   -22.6155  -5.7547  -4.7188  -3.6676   4.7752   5.7866   7.1733  11.1994
    16.1969  16.3946  21.5708  23.3026  25.9854  26.8427  27.3431

          k = 0.6750-0.1687 1.0125 (  2185 PWs)   bands (ev):

   -22.6109  -5.7511  -4.4432  -3.8931   3.9788   6.0776   7.1607  11.5955
    14.9763  18.7107  23.1473  23.9474  24.3446  25.0396  27.7746

          k = 0.5906-0.0844 0.9281 (  2196 PWs)   bands (ev):

   -22.5905  -5.4833  -4.8879  -3.9836   4.2645   6.3173   7.1314  10.9989
    15.6717  17.6847  23.1865  23.9873  24.9412  26.5756  27.2296

          k = 0.5062 0.0000 0.8437 (  2195 PWs)   bands (ev):

   -22.5996  -5.4272  -5.0349  -3.8493   4.5401   6.4099   6.8340  10.9948
    16.3198  16.6649  22.2792  24.5539  25.1059  25.5587  27.7064

          k =-0.3375-1.0125-0.0000 (  2188 PWs)   bands (ev):

   -22.5820  -5.6576  -4.5288  -4.1203   3.7689   5.9932   7.5631  11.3816
    15.1239  18.9639  23.3596  24.3477  25.3160  26.3126  27.2764

          k =-0.5062-1.0125-0.0000 (  2208 PWs)   bands (ev):

   -22.5809  -5.1355  -5.1355  -4.2172   4.3087   6.8360   6.8360  10.5564
    16.7560  16.7560  23.8604  24.5683  24.6195  26.9007  27.0788

     the Fermi energy is    20.1070 ev

!    total energy              =     -93.85099908 Ry
     estimated scf accuracy    <          8.7E-15 Ry
     smearing contrib. (-TS)   =       0.00011397 Ry
     internal energy E=F+TS    =     -93.85111305 Ry

     The total energy is F=E-TS. E is the sum of the following terms:
     one-electron contribution =      18.84141518 Ry
     hartree contribution      =       6.26924900 Ry
     xc contribution           =     -27.14024473 Ry
     ewald contribution        =     -91.82153249 Ry

     convergence has been achieved in  12 iterations

     Forces acting on atoms (cartesian axes, Ry/au):

     atom    1 type  1   force =     0.00000000    0.00000000    0.00000000
     atom    2 type  2   force =     0.00000000   -0.00000000   -0.00000000
     atom    3 type  2   force =    -0.00000000    0.00000000    0.00000000
     atom    4 type  2   force =     0.01429114    0.01429114    0.01429114
     atom    5 type  2   force =    -0.01429114   -0.01429114   -0.01429114
     atom    6 type  2   force =    -0.01429114    0.01429114    0.01429114
     atom    7 type  2   force =     0.01429114   -0.01429114   -0.01429114
     atom    8 type  2   force =    -0.01429114   -0.01429114    0.01429114
     atom    9 type  2   force =     0.01429114    0.01429114   -0.01429114
     atom   10 type  2   force =     0.01429114   -0.01429114    0.01429114
     atom   11 type  2   force =    -0.01429114    0.01429114   -0.01429114

     Total force =     0.070012     Total SCF correction =     0.000000


     Computing stress (Cartesian axis) and pressure

          total   stress  (Ry/bohr**3)                   (kbar)     P=     2519.07
   0.01712428  -0.00000000  -0.00000000         2519.07       -0.00       -0.00
  -0.00000000   0.01712428   0.00000000           -0.00     2519.07        0.00
  -0.00000000   0.00000000   0.01712428           -0.00        0.00     2519.07

     Energy error            =      7.0E-03
     Gradient error          =      1.4E-02
     Cell gradient error     =      1.3E-04


     number of scf cycles    =   3
     number of bfgs steps    =   1

     enthalpy old            =     -90.8832300642 Ry
     enthalpy new            =     -90.8902348027 Ry

     CASE: enthalpy_new < enthalpy_old

     new trust radius        =       0.0272657872 bohr
     new conv_thr            =            1.0E-12 Ry

     new unit-cell volume =    174.09886 a.u.^3 (    25.79879 Ang^3 )
     density =      6.37123 g/cm^3

CELL_PARAMETERS (alat=  8.97619911)
  -0.493737559   0.000000000   0.493737559
  -0.000000000   0.493737559   0.493737559
  -0.493737559   0.493737559   0.000000000

ATOMIC_POSITIONS (crystal)
Y            -0.0000000000        0.0000000000        0.0000000000
H             0.7500000000        0.7500000000        0.7500000000
H             0.2500000000        0.2500000000        0.2500000000
H             0.6227603020        0.1317190940        0.6227603020
H             0.3772396980        0.8682809060        0.3772396980
H             0.3772396980        0.3772396980        0.3772396980
H             0.6227603020        0.6227603020        0.6227603020
H             0.1317190940        0.6227603020        0.6227603020
H             0.8682809060        0.3772396980        0.3772396980
H             0.3772396980        0.3772396980        0.8682809060
H             0.6227603020        0.6227603020        0.1317190940



     Writing output data file ./tmp/yh10.save/
     NEW-OLD atomic charge density approx. for the potential
     extrapolated charge   20.98571, renormalised to   21.00000

     total cpu time spent up to now is       72.4 secs

     Self-consistent Calculation

     iteration #  1     ecut=    80.00 Ry     beta= 0.40
     Davidson diagonalization with overlap
     ethr =  1.00E-06,  avg # of iterations =  5.4

     total cpu time spent up to now is       74.9 secs

     total energy              =     -93.85298919 Ry
     estimated scf accuracy    <       0.00048431 Ry

     iteration #  2     ecut=    80.00 Ry     beta= 0.40
     Davidson diagonalization with overlap
     ethr =  2.31E-06,  avg # of iterations =  1.2

     total cpu time spent up to now is       76.2 secs

     total energy              =     -93.85299018 Ry
     estimated scf accuracy    <       0.00008192 Ry

     iteration #  3     ecut=    80.00 Ry     beta= 0.40
     Davidson diagonalization with overlap
     ethr =  3.90E-07,  avg # of iterations =  2.0

     total cpu time spent up to now is       77.7 secs

     total energy              =     -93.85300351 Ry
     estimated scf accuracy    <       0.00000447 Ry

     iteration #  4     ecut=    80.00 Ry     beta= 0.40
     Davidson diagonalization with overlap
     ethr =  2.13E-08,  avg # of iterations =  1.1

     total cpu time spent up to now is       78.9 secs

     total energy              =     -93.85300404 Ry
     estimated scf accuracy    <       0.00000065 Ry

     iteration #  5     ecut=    80.00 Ry     beta= 0.40
     Davidson diagonalization with overlap
     ethr =  3.08E-09,  avg # of iterations =  1.7

     total cpu time spent up to now is       80.3 secs

     total energy              =     -93.85300403 Ry
     estimated scf accuracy    <       0.00000008 Ry

     iteration #  6     ecut=    80.00 Ry     beta= 0.40
     Davidson diagonalization with overlap
     ethr =  3.58E-10,  avg # of iterations =  2.2

     total cpu time spent up to now is       81.9 secs

     total energy              =     -93.85300405 Ry
     estimated scf accuracy    <       0.00000005 Ry

     iteration #  7     ecut=    80.00 Ry     beta= 0.40
     Davidson diagonalization with overlap
     ethr =  2.39E-10,  avg # of iterations =  2.0

     total cpu time spent up to now is       83.4 secs

     total energy              =     -93.85300406 Ry
     estimated scf accuracy    <          2.4E-09 Ry

     iteration #  8     ecut=    80.00 Ry     beta= 0.40
     Davidson diagonalization with overlap
     ethr =  1.15E-11,  avg # of iterations =  2.4

     total cpu time spent up to now is       85.1 secs

     total energy              =     -93.85300406 Ry
     estimated scf accuracy    <          1.7E-10 Ry

     iteration #  9     ecut=    80.00 Ry     beta= 0.40
[...]
     ethr =  5.13E-13,  avg # of iterations =  2.2

     total cpu time spent up to now is      146.8 secs

     total energy              =     -93.85937908 Ry
     estimated scf accuracy    <          1.1E-12 Ry

     iteration # 12     ecut=    80.00 Ry     beta= 0.40
     Davidson diagonalization with overlap
     ethr =  1.00E-13,  avg # of iterations =  1.0

     total cpu time spent up to now is      148.0 secs

     total energy              =     -93.85937908 Ry
     estimated scf accuracy    <          3.4E-14 Ry

     iteration # 13     ecut=    80.00 Ry     beta= 0.40
     Davidson diagonalization with overlap
     ethr =  1.00E-13,  avg # of iterations =  1.0

     total cpu time spent up to now is      149.2 secs

     End of self-consistent calculation

          k = 0.0000 0.0000 0.0000 (  2085 PWs)   bands (ev):

   -23.1444  -2.8062  -2.8062  -2.8062  -1.1491  10.5239  13.7429  13.7429
    13.7429  14.5518  14.5518  14.5518  18.5657  20.0493  20.0493

          k =-0.0843 0.0843-0.0843 (  2097 PWs)   bands (ev):

   -23.1172  -3.4563  -2.8226  -2.8226  -0.4336   9.7680  13.2151  13.4271
    13.4271  14.6795  14.6795  15.4932  19.5735  20.7202  20.7202

          k =-0.1687 0.1687-0.1687 (  2100 PWs)   bands (ev):

   -23.0418  -4.4556  -2.8668  -2.8668   0.7411   8.4944  12.1961  12.6247
    12.6247  15.2693  15.2693  17.5034  21.7898  22.3628  22.3628

          k =-0.2530 0.2530-0.2530 (  2100 PWs)   bands (ev):

   -22.9364  -5.3580  -2.9253  -2.9253   1.8630   7.3853  11.3924  11.7705
    11.7705  16.2979  16.2979  19.6517  24.3728  24.5052  24.5052

          k =-0.3374 0.3374-0.3374 (  2102 PWs)   bands (ev):

   -22.8278  -6.0635  -2.9816  -2.9816   2.7310   6.5965  10.9996  11.0852
    11.0852  17.6917  17.6917  21.0438  26.1728  26.5418  26.5418

          k =-0.4217 0.4217-0.4217 (  2093 PWs)   bands (ev):

   -22.7462  -6.5132  -3.0215  -3.0215   3.2273   6.1534  10.6520  10.6520
    10.9637  19.3457  19.3457  20.9791  24.2891  24.2891  27.8169

          k = 0.5060-0.5060 0.5060 (  2120 PWs)   bands (ev):

   -22.7159  -6.6678  -3.0359  -3.0359   3.3756   6.0165  10.5044  10.5044
    11.0140  20.5711  20.5711  20.7084  22.8201  22.8201  29.0562

          k = 0.0000 0.1687-0.0000 (  2093 PWs)   bands (ev):

   -23.1082  -3.5345  -2.8767  -2.8767  -0.2371   9.6038  12.7516  13.1435
    13.1435  15.0104  15.6774  15.6774  19.2149  20.1909  21.8319

          k =-0.0843 0.2530-0.0843 (  2098 PWs)   bands (ev):

   -23.0490  -4.2742  -2.9531  -2.9183   0.6875   8.6610  11.2175  12.7443
    13.3614  15.1175  16.3797  17.3300  20.4765  21.0168  23.6753

          k =-0.1687 0.3374-0.1687 (  2095 PWs)   bands (ev):

   -22.9537  -5.1128  -3.0298  -2.9800   1.7652   7.6268  10.0630  12.1461
    13.2854  15.3915  17.2037  19.3484  22.8097  22.9233  25.7038

          k =-0.2530 0.4217-0.2530 (  2105 PWs)   bands (ev):

   -22.8461  -5.8273  -3.0863  -3.0751   2.7164   6.7527   9.4269  11.5040
    12.8765  16.3863  18.4129  21.0232  25.0364  25.4776  26.4177

          k =-0.3374 0.5060-0.3374 (  2104 PWs)   bands (ev):

   -22.7553  -6.3296  -3.1788  -3.1085   3.3759   6.1220   9.2448  10.9872
    12.6185  17.6185  19.9108  21.4419  24.0718  26.2280  27.4516

          k = 0.5904-0.4217 0.5904 (  2102 PWs)   bands (ev):

   -22.7076  -6.5681  -3.2626  -3.0916   3.6892   5.8052   9.2619  10.6912
    12.5917  18.5630  20.6634  21.7615  22.9716  24.3519  28.8098

          k = 0.5060-0.3374 0.5060 (  2100 PWs)   bands (ev):

   -22.7176  -6.5186  -3.3037  -3.0405   3.6449   5.8788   9.2467  10.6638
    12.6995  18.9891  19.0991  22.5202  23.2420  24.6755  28.0566

          k = 0.4217-0.2530 0.4217 (  2100 PWs)   bands (ev):

   -22.7823  -6.1876  -3.2898  -2.9679   3.2281   6.3292   9.2585  10.9266
    12.9464  17.3685  18.6861  21.7148  24.8580  26.3492  26.9558

          k = 0.3374-0.1687 0.3374 (  2098 PWs)   bands (ev):

   -22.8821  -5.6119  -3.2201  -2.8918   2.4495   7.0658   9.5760  11.4823
    13.3810  15.9066  17.5530  20.7354  23.8525  25.3298  26.4957

          k = 0.2530-0.0843 0.2530 (  2095 PWs)   bands (ev):

   -22.9886  -4.8576  -3.1048  -2.8323   1.4120   8.0009  10.3867  12.3098
    13.8800  14.7890  16.2948  19.0724  21.3066  23.8028  24.2234

          k = 0.1687-0.0000 0.1687 (  2099 PWs)   bands (ev):

   -23.0740  -4.0448  -2.9580  -2.8065   0.3257   9.0113  11.6806  13.3002
    14.0161  14.0922  15.2480  17.1970  19.8703  21.7591  22.2121

          k = 0.0000 0.3374-0.0000 (  2097 PWs)   bands (ev):

   -23.0084  -4.5063  -3.0657  -3.0657   1.2058   8.2026  10.1634  12.7444
    12.7444  17.4488  17.6105  17.6105  20.0126  20.6043  25.4773

          k =-0.0843 0.4217-0.0843 (  2095 PWs)   bands (ev):

   -22.9297  -5.0447  -3.1781  -3.1732   2.0073   7.5021   8.9937  12.5289
    12.9666  17.3194  18.5211  19.6582  21.6058  21.6713  27.1092

          k =-0.1687 0.5060-0.1687 (  2096 PWs)   bands (ev):

   -22.8324  -5.6092  -3.3443  -3.2478   2.8522   6.8032   8.2343  12.0976
    13.3607  17.1913  19.4913  21.3375  23.5375  24.5826  26.1632

          k =-0.2530 0.5904-0.2530 (  2109 PWs)   bands (ev):

   -22.7422  -6.0496  -3.5616  -3.2715   3.5817   6.0874   8.1118  11.6072
    13.6696  17.3630  20.7522  22.0698  24.0034  25.8363  26.0660

          k = 0.6747-0.3374 0.6747 (  2108 PWs)   bands (ev):

   -22.6847  -6.2965  -3.7683  -3.2393   4.1806   5.4727   8.2724  11.2122
    14.0181  17.4342  20.9477  22.3638  23.3836  26.9509  28.0552

          k = 0.5904-0.2530 0.5904 (  2103 PWs)   bands (ev):

   -22.6768  -6.3225  -3.8982  -3.1588   4.5423   5.2195   8.2467  11.0049
    14.4956  17.4875  19.1992  23.3221  25.1830  25.1881  27.5297

          k = 0.5060-0.1687 0.5060 (  2110 PWs)   bands (ev):

   -22.7211  -6.1367  -3.9013  -3.0498   4.1337   5.8682   7.9795  11.0318
    14.9342  17.4814  17.8583  23.3806  24.2317  26.3189  27.4228

          k = 0.4217-0.0843 0.4217 (  2102 PWs)   bands (ev):

   -22.8042  -5.7831  -3.7517  -2.9401   3.3731   6.8316   7.8950  11.3039
    15.2229  16.0867  17.7572  22.2571  23.9419  24.7651  27.8229

          k = 0.3374 0.0000 0.3374 (  2109 PWs)   bands (ev):

   -22.9021  -5.3306  -3.4605  -2.8597   2.3942   7.5168   8.7349  11.7822
    15.0356  15.1315  16.9271  21.2323  21.8457  24.9638  26.3725

          k = 0.0000 0.5060-0.0000 (  2085 PWs)   bands (ev):

   -22.8702  -5.2500  -3.3148  -3.3148   2.3803   7.0106   8.2625  12.7589
    12.7589  19.9994  19.9994  20.3492  21.2002  21.2492  27.3259

          k =-0.0843 0.5904-0.0843 (  2097 PWs)   bands (ev):

   -22.7900  -5.5770  -3.4950  -3.4185   2.8000   6.5663   7.7120  12.6948
    13.0374  19.7871  20.8652  22.0725  22.5426  23.6667  25.8023

          k =-0.1687 0.6747-0.1687 (  2109 PWs)   bands (ev):

   -22.7102  -5.8448  -3.8190  -3.4602   3.2368   6.2361   7.5333  12.3729
    13.4388  19.3624  21.7649  22.9632  23.9039  24.7600  25.4860

          k = 0.7591-0.2530 0.7591 (  2113 PWs)   bands (ev):

   -22.6528  -5.9700  -4.2174  -3.4309   3.7024   5.9044   7.7126  11.9574
    13.8293  18.7643  21.4271  23.1747  23.8717  26.7028  27.3537

          k = 0.6747-0.1687 0.6747 (  2111 PWs)   bands (ev):

   -22.6344  -5.9550  -4.5346  -3.3370   4.2619   5.5960   7.7646  11.5891
    14.4513  18.1256  19.6634  23.9494  25.6571  26.8165  27.4866

          k = 0.5904-0.0843 0.5904 (  2113 PWs)   bands (ev):

   -22.6603  -5.8912  -4.5866  -3.2002   4.7492   5.4991   7.4271  11.3446
    15.5619  17.5850  18.0567  24.0583  25.1385  26.5749  27.7620

          k = 0.5060 0.0000 0.5060 (  2099 PWs)   bands (ev):

   -22.7229  -5.8559  -4.2811  -3.0545   4.2968   6.3024   7.1141  11.2512
    16.7195  16.8273  16.9084  23.2320  23.7582  27.0361  27.4261

          k = 0.0000 0.6747-0.0000 (  2092 PWs)   bands (ev):

   -22.7298  -5.7231  -3.5542  -3.5542   2.6239   6.1357   7.7175  13.0699
    13.0699  22.0306  22.6575  22.6575  22.8397  23.5583  25.2045

          k =-0.0843 0.7591-0.0843 (  2108 PWs)   bands (ev):

   -22.6675  -5.8599  -3.7838  -3.6237   2.6038   5.9289   7.7922  13.0733
    13.3101  22.0219  22.5312  23.6076  24.1303  24.7700  25.0007

          k = 0.8434-0.1687 0.8434 (  2108 PWs)   bands (ev):

   -22.6203  -5.8504  -4.2647  -3.6123   2.8628   5.9770   7.8535  12.7588
    13.4487  20.9839  22.0535  23.8682  24.2013  26.2431  27.0529

          k = 0.7591-0.0843 0.7591 (  2119 PWs)   bands (ev):

   -22.6015  -5.6414  -4.8620  -3.5223   3.3659   6.0817   7.8064  12.2870
    13.6160  20.0252  20.4782  24.9188  25.4583  26.7190  27.5018

          k = 0.6747 0.0000 0.6747 (  2121 PWs)   bands (ev):

   -22.6163  -5.4876  -5.1583  -3.3731   4.0636   5.9835   7.5178  11.7876
    14.3364  18.9803  19.0819  24.8718  26.0541  26.4318  27.2303

          k = 0.0000 0.8434 0.0000 (  2112 PWs)   bands (ev):

   -22.6255  -5.9606  -3.7238  -3.7238   2.1607   5.6048   8.1559  13.4631
    13.4631  22.7452  23.4284  23.4284  24.8909  25.6261  25.6261

          k = 0.9278-0.0843 0.9278 (  2109 PWs)   bands (ev):

   -22.5960  -5.9600  -3.9622  -3.7393   2.1774   5.6043   8.2839  13.3987
    13.5186  22.5540  22.6578  23.3230  25.4481  26.3282  26.7026

          k = 0.8434 0.0000 0.8434 (  2111 PWs)   bands (ev):

   -22.5872  -5.7977  -4.4709  -3.6672   2.6315   5.8798   8.1502  12.9475
    13.3980  21.5159  21.5541  24.3594  25.6555  26.7526  27.2959

          k =-0.0000-1.0121 0.0000 (  2100 PWs)   bands (ev):

   -22.5870  -6.0280  -3.7847  -3.7847   1.9022   5.4271   8.4461  13.6486
    13.6486  22.9245  22.9245  23.0548  25.8064  26.7271  27.0251

          k =-0.1687 0.3374-0.0000 (  2091 PWs)   bands (ev):

   -22.9800  -4.8127  -3.1746  -2.9300   1.5327   7.9740   9.8017  12.4836
    13.3995  16.0445  16.7062  19.4874  20.5501  22.5434  25.5841

          k =-0.2530 0.4217-0.0843 (  2097 PWs)   bands (ev):

   -22.8836  -5.4226  -3.3913  -2.9802   2.5121   7.2440   8.6870  11.8876
    13.8547  16.2503  17.8258  20.9895  22.6249  24.5866  26.0980

          k =-0.3374 0.5060-0.1687 (  2108 PWs)   bands (ev):

   -22.7847  -5.9476  -3.5511  -3.0656   3.3805   6.4375   8.2889  11.3534
    14.0360  16.7574  18.9615  22.1484  24.5068  25.2669  26.4491

          k = 0.5904-0.4217 0.7591 (  2106 PWs)   bands (ev):

   -22.7106  -6.2970  -3.6450  -3.1442   4.0106   5.7121   8.3899  11.0056
    14.0245  17.3938  19.6276  23.0981  23.4944  26.2959  27.3206

          k = 0.5060-0.3374 0.6747 (  2100 PWs)   bands (ev):

   -22.6831  -6.4192  -3.6752  -3.1761   4.2995   5.3628   8.5050  10.8859
    14.0211  17.5218  20.1286  22.4707  24.4699  25.0423  28.8225

          k =-0.1687 0.5060-0.0000 (  2095 PWs)   bands (ev):

   -22.8501  -5.4121  -3.4582  -3.2052   2.6672   7.0253   8.0355  12.3404
    13.2507  18.5727  18.6788  21.4992  22.1790  23.5758  25.9326

          k =-0.2530 0.5904-0.0843 (  2101 PWs)   bands (ev):

   -22.7615  -5.7602  -3.7373  -3.2964   3.3474   6.5684   7.4822  11.9452
    13.8175  18.3482  19.8591  22.5093  24.1177  24.7679  26.0227

          k = 0.6747-0.3374 0.8434 (  2109 PWs)   bands (ev):

   -22.6879  -6.0023  -4.0029  -3.3743   3.9374   5.9401   7.6283  11.5452
    14.3581  17.8477  20.5859  23.5837  23.7143  25.3523  27.4549

          k = 0.5904-0.2530 0.7591 (  2109 PWs)   bands (ev):

   -22.6502  -6.1022  -4.2107  -3.3749   4.4772   5.3892   7.8706  11.2607
    14.9332  17.0986  20.5877  22.9363  25.1254  26.9272  27.7596

          k = 0.5060-0.1687 0.6747 (  2110 PWs)   bands (ev):

   -22.6597  -6.0637  -4.2816  -3.2949   4.7154   5.3178   7.7274  11.1772
    15.5848  16.6224  19.5318  23.7240  25.3649  25.9956  27.4698

          k = 0.4217-0.0843 0.5904 (  2105 PWs)   bands (ev):

   -22.7135  -5.9194  -4.1526  -3.1683   4.1950   6.1416   7.3309  11.2883
    15.3850  17.1409  18.5677  23.6452  23.6859  26.1962  27.3092

          k = 0.3374 0.0000 0.5060 (  2102 PWs)   bands (ev):

   -22.7958  -5.7008  -3.8260  -3.0460   3.4108   7.0659   7.3385  11.5467
    14.6464  17.4370  17.8188  22.2952  23.9313  24.5048  27.3171

          k =-0.1687 0.6747-0.0000 (  2108 PWs)   bands (ev):

   -22.7187  -5.7600  -3.7288  -3.5289   2.9749   6.3010   7.4808  12.5332
    13.4653  20.5758  21.4539  22.5386  24.3057  24.8524  25.3632

          k = 0.7591-0.2530 0.9278 (  2108 PWs)   bands (ev):

   -22.6554  -5.8395  -4.0975  -3.6277   3.2560   6.2223   7.4498  12.1114
    13.9877  19.7448  22.1210  23.7055  23.9542  24.6943  27.1348

          k = 0.6747-0.1687 0.8434 (  2116 PWs)   bands (ev):

   -22.6176  -5.7722  -4.5676  -3.6161   3.6485   6.1347   7.6033  11.6541
    14.4022  18.6269  21.7220  23.6477  25.1252  26.4443  27.5844

          k = 0.5904-0.0843 0.7591 (  2116 PWs)   bands (ev):

   -22.6163  -5.6476  -4.8922  -3.5056   4.1375   6.0195   7.5018  11.3842
    14.9953  17.6019  20.5572  24.4895  25.6824  26.5637  27.1907

          k = 0.5060 0.0000 0.6747 (  2117 PWs)   bands (ev):

   -22.6516  -5.7565  -4.6930  -3.3371   4.5273   5.9499   7.1459  11.3068
    16.0839  16.5452  19.4392  23.9485  25.0854  26.0126  28.5139

          k = 0.8434-0.1687 1.0121 (  2117 PWs)   bands (ev):

   -22.6216  -5.8912  -3.9193  -3.8055   2.5548   5.8516   7.9596  12.7382
    13.8087  21.4383  23.3298  23.5592  24.6142  24.7625  27.1441

          k = 0.7591-0.0843 0.9278 (  2117 PWs)   bands (ev):

   -22.5939  -5.7630  -4.3933  -3.8238   2.8694   6.0446   7.9692  12.1116
    14.1681  20.1729  22.8456  24.1715  25.0074  26.3283  27.2089

          k = 0.6747 0.0000 0.8434 (  2120 PWs)   bands (ev):

   -22.5920  -5.4690  -4.9929  -3.7016   3.4301   6.2567   7.7552  11.6113
    14.3993  18.9315  21.8057  25.2589  25.3840  26.1447  27.6032

          k =-0.1687-1.0121-0.0000 (  2114 PWs)   bands (ev):

   -22.5859  -5.9120  -3.9875  -3.9199   2.3126   5.6996   8.2878  12.7983
    13.9789  21.4690  23.0795  23.6035  26.0831  26.4858  26.4954

          k = 0.6747-0.3374 1.0121 (  2113 PWs)   bands (ev):

   -22.6895  -5.8134  -4.1666  -3.4410   3.8247   6.6984   6.7860  11.6043
    14.6430  18.3752  20.2486  23.4199  23.8932  25.5220  27.3172

          k = 0.5904-0.2530 0.9278 (  2112 PWs)   bands (ev):

   -22.6360  -5.7771  -4.5151  -3.6033   4.1174   6.2491   7.1958  11.2451
    15.4622  17.2138  21.1668  24.0313  24.8005  25.4237  28.0305

          k = 0.5060-0.1687 0.8434 (  2108 PWs)   bands (ev):

   -22.6163  -5.7382  -4.6612  -3.6720   4.2111   6.0612   7.4829  11.0592
    16.2095  16.2699  21.7252  23.3649  25.9444  26.8326  27.2383

          k = 0.6747-0.1687 1.0121 (  2111 PWs)   bands (ev):

   -22.6118  -5.6983  -4.4022  -3.9107   3.4423   6.4559   7.3889  11.4405
    14.8567  18.6985  23.2871  24.0816  24.2440  25.0197  27.7314

          k = 0.5904-0.0843 0.9278 (  2128 PWs)   bands (ev):

   -22.5918  -5.4287  -4.8434  -4.0048   3.7097   6.6440   7.4219  10.8577
    15.5692  17.6354  23.3242  24.0928  24.9138  26.4968  27.1766

          k = 0.5060 0.0000 0.8434 (  2125 PWs)   bands (ev):

   -22.6007  -5.4030  -4.9723  -3.8616   3.9765   6.6891   7.1557  10.8620
    16.2604  16.5991  22.3854  24.7046  25.0056  25.5493  27.6319

          k =-0.3374-1.0121 0.0000 (  2126 PWs)   bands (ev):

   -22.5835  -5.5773  -4.4859  -4.1601   3.2156   6.3708   7.8359  11.2188
    14.9845  18.9417  23.5243  24.3032  25.4656  26.3046  27.0589

          k =-0.5060-1.0121-0.0000 (  2148 PWs)   bands (ev):

   -22.5823  -5.0704  -5.0704  -4.2683   3.7457   7.1562   7.1562  10.4132
    16.6696  16.6696  23.9927  24.5976  24.7648  26.9462  26.9463

     the Fermi energy is    20.1124 ev

!    total energy              =     -93.85937908 Ry
     estimated scf accuracy    <          9.3E-15 Ry
     smearing contrib. (-TS)   =       0.00020015 Ry
     internal energy E=F+TS    =     -93.85957924 Ry

     The total energy is F=E-TS. E is the sum of the following terms:
     one-electron contribution =      18.89685863 Ry
     hartree contribution      =       6.23372094 Ry
     xc contribution           =     -27.13482893 Ry
     ewald contribution        =     -91.85532989 Ry

     convergence has been achieved in  13 iterations

     Forces acting on atoms (cartesian axes, Ry/au):

     atom    1 type  1   force =     0.00000000    0.00000000    0.00000000
     atom    2 type  2   force =     0.00000000    0.00000000   -0.00000000
     atom    3 type  2   force =    -0.00000000   -0.00000000    0.00000000
     atom    4 type  2   force =     0.00000047    0.00000047    0.00000047
     atom    5 type  2   force =    -0.00000047   -0.00000047   -0.00000047
     atom    6 type  2   force =    -0.00000047    0.00000047    0.00000047
     atom    7 type  2   force =     0.00000047   -0.00000047   -0.00000047
     atom    8 type  2   force =    -0.00000047   -0.00000047    0.00000047
     atom    9 type  2   force =     0.00000047    0.00000047   -0.00000047
     atom   10 type  2   force =     0.00000047   -0.00000047    0.00000047
     atom   11 type  2   force =    -0.00000047    0.00000047   -0.00000047

     Total force =     0.000002     Total SCF correction =     0.000000


     Computing stress (Cartesian axis) and pressure

          total   stress  (Ry/bohr**3)                   (kbar)     P=     2499.98
   0.01699451   0.00000000   0.00000000         2499.98        0.00        0.00
   0.00000000   0.01699451  -0.00000000            0.00     2499.98       -0.00
   0.00000000  -0.00000000   0.01699451            0.00       -0.00     2499.98


     Writing output data file ./tmp/yh10.save/

     init_run     :      3.82s CPU      4.08s WALL (       2 calls)
     electrons    :    111.23s CPU    128.12s WALL (       7 calls)
     update_pot   :      4.99s CPU      4.99s WALL (       5 calls)
     forces       :      4.54s CPU      4.60s WALL (       7 calls)
     stress       :      8.87s CPU      8.90s WALL (       7 calls)

     Called by init_run:
     wfcinit      :      1.22s CPU      1.40s WALL (       2 calls)
     potinit      :      0.58s CPU      0.59s WALL (       2 calls)
     hinit0       :      1.83s CPU      1.87s WALL (       2 calls)

     Called by electrons:
     c_bands      :     93.55s CPU    107.65s WALL (      78 calls)
     sum_band     :     14.29s CPU     16.89s WALL (      78 calls)
     v_of_rho     :      1.15s CPU      1.25s WALL (      84 calls)
     newd         :      2.30s CPU      2.36s WALL (      84 calls)
     mix_rho      :      0.11s CPU      0.13s WALL (      78 calls)

     Called by c_bands:
     init_us_2    :      1.29s CPU      1.39s WALL (   12384 calls)
     cegterg      :     90.96s CPU    104.99s WALL (    5616 calls)

     Called by *egterg:
     cdiaghg      :      9.51s CPU      9.83s WALL (   19544 calls)
     h_psi        :     58.87s CPU     72.08s WALL (   20120 calls)
     s_psi        :      5.16s CPU      5.44s WALL (   20120 calls)
     g_psi        :      0.40s CPU      0.41s WALL (   14360 calls)

     Called by h_psi:
     h_psi:calbec :      5.04s CPU      6.13s WALL (   20120 calls)
     vloc_psi     :     48.75s CPU     60.27s WALL (   20120 calls)
     add_vuspsi   :      4.87s CPU      5.46s WALL (   20120 calls)

     General routines
     calbec       :      7.85s CPU      9.36s WALL (   28256 calls)
     fft          :      0.74s CPU      0.89s WALL (    1259 calls)
     ffts         :      0.03s CPU      0.04s WALL (     162 calls)
     fftw         :     51.96s CPU     64.25s WALL (  537642 calls)
     interpolate  :      0.07s CPU      0.09s WALL (      84 calls)

     Parallel routines
     fft_scatt_xy :      4.51s CPU      5.57s WALL (  539063 calls)
     fft_scatt_yz :     22.92s CPU     28.60s WALL (  539063 calls)

     PWSCF        :   2m13.90s CPU   2m31.23s WALL


   This run was terminated on:  22:39:42  27May2026            

=------------------------------------------------------------------------------=
   JOB DONE.
=------------------------------------------------------------------------------=
